/*--------------------------------*- C++ -*----------------------------------*\
| =========                 |                                                 |
| \\      /  F ield         | OpenFOAM: The Open Source CFD Toolbox           |
|  \\    /   O peration     | Version:  5.x                                   |
|   \\  /    A nd           | Web:      www.OpenFOAM.org                      |
|    \\/     M anipulation  |                                                 |
\*---------------------------------------------------------------------------*/
FoamFile
{
    version     2.0;
    format      ascii;
    class       volVectorField;
    location    "151";
    object      U;
}
// * * * * * * * * * * * * * * * * * * * * * * * * * * * * * * * * * * * * * //

dimensions      [0 1 -1 0 0 0 0];

internalField   nonuniform List<vector> 
5760
(
(0.964497 -0.264325 0)
(0.97027 -0.111049 0)
(0.91954 -0.0227866 0)
(0.850303 0.00355263 0)
(0.793654 0.00787464 0)
(0.752204 0.00679547 0)
(0.721073 0.00525224 0)
(0.696927 0.00418561 0)
(0.677808 0.00350327 0)
(0.662315 0.00301916 0)
(0.649507 0.00262578 0)
(0.63884 0.00227465 0)
(0.630027 0.00191796 0)
(0.622923 0.00153118 0)
(0.617693 0.00102027 0)
(0.614422 0.000257423 0)
(0.614665 -0.000634412 0)
(0.617594 -0.0060897 0)
(1.01569 0.0518277 0)
(1.01167 0.0500751 0)
(1.00078 0.033911 0)
(0.981386 0.0268205 0)
(0.960169 0.022807 0)
(0.939497 0.01887 0)
(0.920198 0.0153834 0)
(0.903119 0.0126872 0)
(0.88856 0.0106653 0)
(0.876282 0.00910819 0)
(0.865921 0.00785378 0)
(0.857195 0.00677825 0)
(0.849915 0.00577736 0)
(0.843965 0.00474076 0)
(0.839328 0.00351188 0)
(0.836027 0.00188102 0)
(0.834422 -0.000875179 0)
(0.833649 -0.00580323 0)
(0.997271 0.0125118 0)
(0.997027 0.0229262 0)
(1.00248 0.0245935 0)
(1.00196 0.0258696 0)
(0.996489 0.0251485 0)
(0.988148 0.0225967 0)
(0.97822 0.0196398 0)
(0.968038 0.0170019 0)
(0.958504 0.0147855 0)
(0.949955 0.0129162 0)
(0.942448 0.0113024 0)
(0.935965 0.00984835 0)
(0.930469 0.00845117 0)
(0.925918 0.00699168 0)
(0.922282 0.00529964 0)
(0.919515 0.0031232 0)
(0.917434 -3.97681e-05 0)
(0.915207 -0.00482711 0)
(0.996586 -0.000222822 0)
(0.996538 0.0135546 0)
(1.00366 0.0214227 0)
(1.00781 0.025299 0)
(1.00841 0.0261557 0)
(1.00644 0.0248528 0)
(1.00245 0.0226693 0)
(0.997332 0.0203646 0)
(0.991899 0.0181875 0)
(0.98662 0.016187 0)
(0.981728 0.0143463 0)
(0.977343 0.01261 0)
(0.973525 0.0108948 0)
(0.970286 0.00909209 0)
(0.9676 0.00705068 0)
(0.96538 0.00457648 0)
(0.96339 0.00137947 0)
(0.960931 -0.00268252 0)
(0.998337 0.000184021 0)
(0.998481 0.0121718 0)
(1.00427 0.0199225 0)
(1.00928 0.0240214 0)
(1.01241 0.0256601 0)
(1.01379 0.025355 0)
(1.01345 0.0239724 0)
(1.01183 0.0221707 0)
(1.00951 0.0202506 0)
(1.00689 0.0183307 0)
(1.00424 0.0164489 0)
(1.00171 0.0145902 0)
(0.999407 0.0127017 0)
(0.99737 0.010703 0)
(0.995582 0.00848591 0)
(0.993958 0.00593093 0)
(0.992322 0.00291321 0)
(0.990158 -0.000549237 0)
(0.999288 0.00191294 0)
(0.999744 0.0112725 0)
(1.00431 0.0179326 0)
(1.00924 0.0219504 0)
(1.01335 0.0240496 0)
(1.0164 0.0244787 0)
(1.01817 0.0238039 0)
(1.01884 0.0225479 0)
(1.01875 0.0210001 0)
(1.01817 0.0193048 0)
(1.01732 0.0175314 0)
(1.01635 0.0156964 0)
(1.01536 0.0137787 0)
(1.0144 0.0117323 0)
(1.01346 0.00949615 0)
(1.01247 0.00701377 0)
(1.01133 0.00425659 0)
(1.0097 0.00128579 0)
(0.999656 0.00242121 0)
(1.00043 0.00986192 0)
(1.00418 0.0156637 0)
(1.00873 0.0195221 0)
(1.01306 0.021819 0)
(1.0168 0.0227134 0)
(1.01972 0.02258 0)
(1.02179 0.0218076 0)
(1.02318 0.020644 0)
(1.02406 0.019232 0)
(1.02457 0.0176532 0)
(1.02483 0.0159444 0)
(1.02492 0.0141104 0)
(1.02487 0.0121363 0)
(1.02468 0.0100005 0)
(1.02433 0.00769129 0)
(1.02374 0.00522768 0)
(1.02273 0.0026772 0)
(0.999854 0.00236443 0)
(1.00082 0.00841623 0)
(1.00399 0.0134331 0)
(1.00807 0.016983 0)
(1.01224 0.019262 0)
(1.01617 0.0203927 0)
(1.0196 0.0206207 0)
(1.02245 0.0202216 0)
(1.02475 0.0193936 0)
(1.0266 0.018264 0)
(1.02807 0.0169137 0)
(1.02924 0.0153899 0)
(1.03015 0.0137147 0)
(1.03083 0.0118968 0)
(1.03129 0.00994203 0)
(1.03152 0.00786547 0)
(1.03149 0.00570462 0)
(1.03109 0.00351969 0)
(0.999977 0.0021567 0)
(1.00102 0.00711408 0)
(1.00374 0.0113611 0)
(1.00736 0.0145011 0)
(1.01125 0.0166223 0)
(1.01509 0.0178148 0)
(1.01867 0.0182393 0)
(1.02186 0.018088 0)
(1.02465 0.0175138 0)
(1.02705 0.0166238 0)
(1.02912 0.0154923 0)
(1.03087 0.0141686 0)
(1.03235 0.0126849 0)
(1.03357 0.0110636 0)
(1.03453 0.00932613 0)
(1.03524 0.00749974 0)
(1.03568 0.00562484 0)
(1.03581 0.00375043 0)
(1.00005 0.00183232 0)
(1.00109 0.00572685 0)
(1.00341 0.00912669 0)
(1.00656 0.0117395 0)
(1.01007 0.0135812 0)
(1.01368 0.0147069 0)
(1.01719 0.0152145 0)
(1.02049 0.015228 0)
(1.02352 0.0148563 0)
(1.02625 0.0141833 0)
(1.02871 0.0132718 0)
(1.03088 0.0121691 0)
(1.03278 0.0109112 0)
(1.03442 0.00952778 0)
(1.03581 0.00804767 0)
(1.03693 0.00650211 0)
(1.03782 0.00492728 0)
(1.03844 0.00336041 0)
(1.00008 0.00134124 0)
(1.00102 0.00405387 0)
(1.00293 0.00644878 0)
(1.00557 0.00834452 0)
(1.00861 0.00971947 0)
(1.01184 0.0105994 0)
(1.0151 0.0110358 0)
(1.01828 0.0110976 0)
(1.02131 0.0108521 0)
(1.02415 0.0103565 0)
(1.02677 0.00965779 0)
(1.02917 0.00879479 0)
(1.03134 0.00780032 0)
(1.03328 0.00670357 0)
(1.03499 0.00553219 0)
(1.03648 0.00431349 0)
(1.03775 0.00307479 0)
(1.03881 0.00184169 0)
(1.00008 0.000711681 0)
(1.00086 0.00211659 0)
(1.00238 0.00335221 0)
(1.00452 0.00432909 0)
(1.00706 0.0050245 0)
(1.00982 0.00544563 0)
(1.01269 0.00561335 0)
(1.01557 0.00555737 0)
(1.0184 0.00530992 0)
(1.02111 0.00490129 0)
(1.02368 0.00435872 0)
(1.02609 0.00370661 0)
(1.02832 0.00296707 0)
(1.03036 0.00216048 0)
(1.03223 0.00130593 0)
(1.03391 0.000421379 0)
(1.03542 -0.000476558 0)
(1.03678 -0.00137314 0)
(1.00006 1.14216e-06 0)
(1.00067 -2.16464e-05 0)
(1.0019 -0.000103415 0)
(1.00366 -0.000246996 0)
(1.00579 -0.000446446 0)
(1.00816 -0.000700491 0)
(1.01067 -0.00100863 0)
(1.01322 -0.00136859 0)
(1.01576 -0.00177696 0)
(1.01823 -0.0022296 0)
(1.0206 -0.00272162 0)
(1.02284 -0.00324743 0)
(1.02495 -0.00380086 0)
(1.02692 -0.00437535 0)
(1.02874 -0.00496417 0)
(1.03042 -0.00556064 0)
(1.03195 -0.00615846 0)
(1.03336 -0.00675177 0)
(1.00004 -0.000594092 0)
(1.00052 -0.00185425 0)
(1.00162 -0.00314093 0)
(1.00332 -0.00433914 0)
(1.00542 -0.00539225 0)
(1.00775 -0.00629424 0)
(1.01019 -0.00705843 0)
(1.01264 -0.00770846 0)
(1.01504 -0.00827079 0)
(1.01734 -0.00876852 0)
(1.01952 -0.00921981 0)
(1.02156 -0.00963839 0)
(1.02344 -0.0100342 0)
(1.02518 -0.0104141 0)
(1.02677 -0.0107822 0)
(1.02822 -0.0111411 0)
(1.02953 -0.0114919 0)
(1.03072 -0.0118348 0)
(1.00002 -0.000905959 0)
(1.00014 -0.00322583 0)
(1.00108 -0.00560369 0)
(1.00289 -0.00766293 0)
(1.0052 -0.0093642 0)
(1.00773 -0.0107131 0)
(1.01028 -0.0117295 0)
(1.01274 -0.0124726 0)
(1.01503 -0.0130121 0)
(1.01712 -0.0134052 0)
(1.019 -0.0136955 0)
(1.02069 -0.0139157 0)
(1.02217 -0.0140897 0)
(1.02348 -0.0142347 0)
(1.02462 -0.0143621 0)
(1.02561 -0.0144797 0)
(1.02646 -0.0145922 0)
(1.02719 -0.0147029 0)
(0.999661 0.000176301 0)
(0.99871 -0.00343013 0)
(0.999752 -0.0075289 0)
(1.00214 -0.0106694 0)
(1.00493 -0.0129676 0)
(1.00773 -0.0145583 0)
(1.0103 -0.0155524 0)
(1.01251 -0.0161113 0)
(1.01431 -0.016381 0)
(1.01576 -0.0164646 0)
(1.01688 -0.016433 0)
(1.01774 -0.0163354 0)
(1.01838 -0.0162048 0)
(1.01882 -0.0160623 0)
(1.01911 -0.0159208 0)
(1.01926 -0.0157881 0)
(1.0193 -0.0156687 0)
(1.01927 -0.0155657 0)
(0.997362 0.00338726 0)
(0.994401 -0.00194996 0)
(0.996997 -0.00843852 0)
(1.00119 -0.0130827 0)
(1.00471 -0.0159677 0)
(1.00735 -0.0174423 0)
(1.00913 -0.017985 0)
(1.01009 -0.0180134 0)
(1.01041 -0.0177765 0)
(1.01027 -0.017408 0)
(1.00979 -0.0169867 0)
(1.00909 -0.0165586 0)
(1.00822 -0.0161485 0)
(1.00724 -0.0157678 0)
(1.00618 -0.0154215 0)
(1.00508 -0.0151105 0)
(1.00394 -0.0148334 0)
(1.00281 -0.0145861 0)
(0.994573 -0.00138912 0)
(0.990822 -0.00783375 0)
(0.995521 -0.0123212 0)
(1.00077 -0.0161303 0)
(1.00354 -0.018353 0)
(1.004 -0.0187853 0)
(1.00277 -0.0182395 0)
(1.00045 -0.0173823 0)
(0.997573 -0.0164849 0)
(0.994471 -0.0156349 0)
(0.991312 -0.0148669 0)
(0.988182 -0.0141911 0)
(0.985128 -0.0136029 0)
(0.982174 -0.0130925 0)
(0.97933 -0.0126506 0)
(0.976601 -0.0122696 0)
(0.973988 -0.0119456 0)
(0.971526 -0.0116711 0)
(1.00724 -0.0381658 0)
(1.0074 -0.0439869 0)
(1.0066 -0.0329728 0)
(1.00218 -0.0267022 0)
(0.995694 -0.0235976 0)
(0.987783 -0.0210215 0)
(0.978987 -0.0187346 0)
(0.970135 -0.0169026 0)
(0.961796 -0.0154581 0)
(0.954128 -0.0142783 0)
(0.947096 -0.0132885 0)
(0.940629 -0.0124472 0)
(0.934662 -0.0117254 0)
(0.929139 -0.0111017 0)
(0.924006 -0.0105627 0)
(0.919221 -0.0101 0)
(0.914744 -0.00971878 0)
(0.910577 -0.00942918 0)
(0.987092 0.184624 0)
(1.0127 0.0964513 0)
(0.994983 0.0319509 0)
(0.957251 0.00745286 0)
(0.922754 0.000382383 0)
(0.895346 -0.000783227 0)
(0.87285 -0.00054031 0)
(0.85371 -0.000318627 0)
(0.837156 -0.00034374 0)
(0.82261 -0.000521837 0)
(0.809619 -0.000754869 0)
(0.79789 -0.0009889 0)
(0.787228 -0.00120207 0)
(0.77749 -0.00138477 0)
(0.768551 -0.00154192 0)
(0.760317 -0.00167626 0)
(0.752646 -0.00180301 0)
(0.74557 -0.00195412 0)
(0.00139684 -0.00182814 0)
(0.00567534 -0.00291477 9.98575e-21)
(0.00956863 -0.0024994 0)
(0.0118041 -0.00142183 -8.5215e-21)
(0.0120863 -0.00038872 0)
(0.0107778 0.000335652 0)
(0.0084336 0.000819992 0)
(0.00530026 0.00124577 0)
(0.00135834 0.00173858 1.86998e-20)
(-0.00355841 0.0023182 0)
(-0.00970487 0.00300649 0)
(-0.0173355 0.0038474 0)
(-0.0266355 0.0048261 0)
(-0.0377171 0.00589453 -1.12995e-20)
(-0.0505732 0.00697352 0)
(-0.0650473 0.00796 0)
(-0.0808853 0.00877593 8.17251e-21)
(-0.0977522 0.00936945 0)
(-0.115267 0.00971312 6.90137e-21)
(-0.13305 0.00980833 6.43223e-21)
(-0.150744 0.00967694 0)
(-0.168036 0.00935275 0)
(-0.184667 0.00887346 0)
(-0.200423 0.00827494 0)
(-0.215139 0.00758813 0)
(-0.228687 0.00683772 0)
(-0.240967 0.00604214 4.34707e-21)
(-0.251901 0.00521403 0)
(-0.261426 0.00436097 0)
(-0.269489 0.00348574 -6.93423e-21)
(-0.276039 0.00258676 0)
(-0.281032 0.00166171 0)
(-0.284425 0.000722425 0)
(-0.286154 -0.000182651 0)
(-0.28614 -0.000983038 3.00093e-21)
(-0.284668 -0.00167626 2.01043e-21)
(-0.281851 -0.00231035 9.47015e-22)
(-0.277738 -0.00290457 0)
(-0.272387 -0.00346092 -1.40597e-21)
(-0.265858 -0.00397813 0)
(-0.258216 -0.00445424 0)
(-0.249533 -0.00488741 0)
(-0.239888 -0.00527642 0)
(-0.229365 -0.00562046 0)
(-0.218053 -0.00591934 -1.03978e-20)
(-0.206039 -0.00617278 1.21991e-20)
(-0.193414 -0.00638423 -1.40962e-20)
(-0.180275 -0.00655694 0)
(-0.166714 -0.00668903 0)
(-0.152815 -0.00678163 0)
(-0.138661 -0.00684064 0)
(-0.124335 -0.00686598 0)
(-0.109916 -0.00686078 0)
(-0.0954782 -0.00682791 0)
(-0.0810889 -0.00677049 0)
(-0.0668104 -0.00669129 0)
(-0.0526982 -0.00659324 -7.90988e-20)
(-0.0388021 -0.00647888 -8.591e-20)
(-0.0251675 -0.00635147 -9.31479e-20)
(-0.0118404 -0.00621115 1.00854e-19)
(0.00114438 -0.00601149 0)
(0.0137713 -0.00571767 0)
(0.0260186 -0.00538596 1.04168e-19)
(0.0378568 -0.00506037 1.02347e-19)
(0.0492656 -0.00474684 0)
(0.0602344 -0.00444555 0)
(0.0707571 -0.00415647 -9.76223e-20)
(0.0808301 -0.00387965 0)
(0.0904522 -0.00361507 0)
(0.0996248 -0.00336279 0)
(0.108351 -0.00312258 0)
(0.116636 -0.00289439 0)
(0.124486 -0.00267801 -9.06067e-20)
(0.131907 -0.00247325 -8.96788e-20)
(0.138909 -0.00227987 0)
(0.145501 -0.00209752 -8.79935e-20)
(0.151694 -0.00192582 0)
(0.1575 -0.00176439 0)
(0.16293 -0.00161286 0)
(0.167997 -0.00147083 -1.70428e-19)
(0.172713 -0.00133784 0)
(0.177091 -0.00121343 1.68151e-19)
(0.181144 -0.00109732 0)
(0.184883 -0.00098919 1.66157e-19)
(0.188323 -0.00088865 -1.65252e-19)
(0.191475 -0.000795226 0)
(0.194353 -0.000708471 0)
(0.196967 -0.00062777 0)
(0.199328 -0.000552529 0)
(0.201443 -0.000481864 0)
(0.203317 -0.000414866 0)
(0.204949 -0.000349669 1.6032e-19)
(0.206332 -0.000284613 0)
(0.20743 -0.000212215 -1.59396e-19)
(0.208215 -0.000123624 0)
(0.20838 1.00053e-05 -1.58847e-19)
(0.208111 0.00018131 0)
(0.205604 0.000554444 0)
(0.203785 0.00116744 0)
(0.185099 0.00286755 0)
(0.00183054 -0.0070612 -1.8365e-20)
(0.00589069 -0.00878167 -2.28422e-20)
(0.00715228 -0.00523051 0)
(0.00593459 -0.00104392 4.94663e-21)
(0.0027146 0.0024602 0)
(-0.00223401 0.00504719 0)
(-0.00877151 0.00700546 1.56076e-20)
(-0.0168124 0.00876738 0)
(-0.0263745 0.0106335 6.35721e-21)
(-0.0374844 0.0127165 0)
(-0.0501246 0.0150101 1.08295e-20)
(-0.0642248 0.0174412 0)
(-0.0796364 0.0198695 0)
(-0.0961085 0.0221149 4.33232e-21)
(-0.113306 0.0240152 -7.87778e-21)
(-0.130875 0.0254469 0)
(-0.148466 0.0263278 -1.0565e-20)
(-0.165746 0.0266338 6.67483e-21)
(-0.18244 0.0264006 -9.65616e-21)
(-0.19833 0.0256947 -9.30864e-21)
(-0.21326 0.0245996 0)
(-0.227117 0.0232019 0)
(-0.239832 0.0215814 -5.61691e-21)
(-0.251357 0.0198058 5.432e-21)
(-0.261665 0.017929 0)
(-0.270738 0.015991 -5.01902e-21)
(-0.278562 0.0140209 2.38463e-21)
(-0.285127 0.0120384 0)
(-0.290424 0.0100572 0)
(-0.294448 0.00808636 -3.91487e-21)
(-0.297198 0.00613121 0)
(-0.298687 0.00419464 6.27607e-21)
(-0.298949 0.00228599 0)
(-0.298049 0.000441094 0)
(-0.2961 -0.00127855 -1.6504e-21)
(-0.292973 -0.00285478 -1.10051e-21)
(-0.288614 -0.00431769 7.41835e-22)
(-0.283044 -0.00568245 0)
(-0.276302 -0.00694904 -4.50843e-22)
(-0.268438 -0.00811381 0)
(-0.25951 -0.00917233 0)
(-0.249586 -0.0101209 0)
(-0.238737 -0.0109573 0)
(-0.227044 -0.0116809 8.12731e-21)
(-0.214588 -0.0122938 -4.62109e-21)
(-0.201453 -0.0128 -5.79464e-21)
(-0.187726 -0.0131999 -6.16609e-21)
(-0.173497 -0.0134914 -1.43577e-20)
(-0.158846 -0.0136901 1.59817e-20)
(-0.14386 -0.0138047 0)
(-0.128617 -0.0138369 0)
(-0.113194 -0.0137917 0)
(-0.097667 -0.013677 0)
(-0.0821053 -0.0135007 4.87703e-20)
(-0.0665735 -0.0132706 -5.22274e-20)
(-0.0511307 -0.012994 0)
(-0.0358301 -0.0126783 3.00447e-20)
(-0.0207199 -0.0123295 -3.09506e-20)
(-0.00584331 -0.0119532 -3.26825e-20)
(0.00876641 -0.0115514 -3.45987e-20)
(0.0230793 -0.0111094 0)
(0.0370577 -0.0106213 0)
(0.05067 -0.0101131 -3.58257e-20)
(0.0639002 -0.0096054 3.55164e-20)
(0.0767359 -0.00910462 0)
(0.0891663 -0.00861346 0)
(0.101184 -0.00813372 3.69264e-20)
(0.112784 -0.00766689 0)
(0.123964 -0.00721417 0)
(0.134724 -0.00677663 0)
(0.145066 -0.00635492 0)
(0.154994 -0.00594973 7.51098e-20)
(0.164512 -0.00556145 3.78545e-20)
(0.173627 -0.00519037 1.13551e-19)
(0.182343 -0.00483657 0)
(0.190672 -0.00449991 3.81359e-20)
(0.19862 -0.00418018 0)
(0.206199 -0.0038771 0)
(0.213418 -0.0035903 0)
(0.220288 -0.00331932 7.68438e-20)
(0.22682 -0.00306368 0)
(0.233025 -0.00282284 -7.70914e-20)
(0.238913 -0.00259633 0)
(0.244496 -0.00238363 7.70273e-20)
(0.249786 -0.00218421 7.74446e-20)
(0.254791 -0.00199741 0)
(0.259524 -0.00182246 0)
(0.263995 -0.00165826 0)
(0.26821 -0.00150359 -1.55611e-19)
(0.272178 -0.00135674 0)
(0.275901 -0.00121554 0)
(0.279378 -0.00107634 7.8128e-20)
(0.282601 -0.000933839 0)
(0.285536 -0.000775639 -7.84745e-20)
(0.288172 -0.000582533 0)
(0.290354 -0.000312282 -7.89852e-20)
(0.292159 8.06348e-05 -1.58647e-19)
(0.292358 0.000806632 -1.59666e-19)
(0.292991 0.00225218 0)
(0.284054 0.00565964 0)
(0.00123615 -0.0109955 1.66888e-20)
(0.00180328 -0.00942673 -1.15295e-20)
(-0.000610943 -0.00254539 0)
(-0.004862 0.00384055 -1.17574e-20)
(-0.0106745 0.00909845 0)
(-0.0179927 0.0133469 0)
(-0.026829 0.0169358 -8.28867e-21)
(-0.0371747 0.0202548 0)
(-0.0489677 0.023574 -7.11604e-21)
(-0.062077 0.0269821 0)
(-0.0762995 0.0304115 -6.19029e-21)
(-0.0913702 0.0336977 0)
(-0.106973 0.0366418 0)
(-0.122775 0.0390474 0)
(-0.138473 0.0407615 1.46192e-20)
(-0.153814 0.0417014 0)
(-0.168596 0.0418515 1.35158e-20)
(-0.182688 0.0412579 -4.37713e-21)
(-0.196011 0.0400084 4.2536e-21)
(-0.208516 0.0382177 4.14566e-21)
(-0.220176 0.0360055 0)
(-0.23097 0.0334825 7.89232e-21)
(-0.240881 0.0307435 1.15345e-20)
(-0.249888 0.0278642 -3.73355e-21)
(-0.257966 0.0249018 0)
(-0.265085 0.0218977 1.04072e-20)
(-0.271214 0.0188811 -3.30498e-21)
(-0.27632 0.0158728 6.26893e-21)
(-0.280373 0.0128883 0)
(-0.283345 0.00994098 1.08041e-20)
(-0.285216 0.00704405 0)
(-0.285977 0.0042137 -4.32365e-21)
(-0.285626 0.00147283 0)
(-0.284162 -0.00115115 0)
(-0.281572 -0.00364696 -2.48252e-21)
(-0.277819 -0.00601514 0)
(-0.272903 -0.00824979 -1.85473e-21)
(-0.266844 -0.0103413 0)
(-0.259675 -0.0122804 1.79926e-22)
(-0.251441 -0.0140583 -2.90353e-21)
(-0.242195 -0.0156672 0)
(-0.232 -0.0171013 0)
(-0.220924 -0.018357 -8.23324e-21)
(-0.209041 -0.0194334 -5.27723e-21)
(-0.196429 -0.0203332 1.815e-20)
(-0.183168 -0.0210627 0)
(-0.169341 -0.0216256 -7.58037e-21)
(-0.155032 -0.0220227 9.06332e-21)
(-0.140316 -0.0222716 -2.94854e-20)
(-0.125278 -0.0223855 -2.13527e-20)
(-0.109992 -0.0223707 0)
(-0.0945334 -0.0222361 0)
(-0.0789718 -0.0219937 2.6921e-20)
(-0.0633741 -0.0216558 -5.80463e-20)
(-0.0478018 -0.0212348 3.10998e-20)
(-0.0323115 -0.0207424 3.23193e-20)
(-0.0169542 -0.0201898 0)
(-0.00177569 -0.0195876 7.18404e-20)
(0.013183 -0.0189456 3.73204e-20)
(0.0278862 -0.0182698 0)
(0.0423027 -0.0175657 0)
(0.0564023 -0.0168408 0)
(0.0701604 -0.0161038 0)
(0.0835602 -0.0153643 -4.08256e-20)
(0.0965875 -0.0146291 -8.19766e-20)
(0.109231 -0.0139026 0)
(0.121482 -0.0131885 -8.39797e-20)
(0.133337 -0.0124896 8.48665e-20)
(0.144793 -0.0118084 0)
(0.155848 -0.0111469 0)
(0.166505 -0.0105064 0)
(0.176766 -0.00988849 -4.41459e-20)
(0.186636 -0.00929404 -8.84116e-20)
(0.196121 -0.00872379 -1.33689e-19)
(0.205226 -0.0081781 -8.95203e-20)
(0.213959 -0.00765698 0)
(0.22233 -0.00716039 0)
(0.230348 -0.00668806 0)
(0.238021 -0.00623965 0)
(0.245361 -0.0058146 9.18294e-20)
(0.252377 -0.00541233 9.22383e-20)
(0.259081 -0.00503216 0)
(0.265482 -0.00467347 -9.30239e-20)
(0.271592 -0.00433548 -9.36181e-20)
(0.277421 -0.00401746 0)
(0.28298 -0.00371844 0)
(0.288278 -0.00343733 0)
(0.293325 -0.00317254 9.48711e-20)
(0.29813 -0.00292228 9.5387e-20)
(0.302698 -0.00268398 0)
(0.307035 -0.0024543 0)
(0.311139 -0.00222772 -9.64813e-20)
(0.315004 -0.00199601 0)
(0.318602 -0.00174283 9.7292e-20)
(0.321918 -0.00144363 0)
(0.324815 -0.00104187 -9.81578e-20)
(0.327373 -0.000459565 9.89691e-20)
(0.328673 0.000553544 9.97509e-20)
(0.330227 0.0024996 2.00234e-19)
(0.325944 0.00672037 0)
(-0.000231861 -0.0114136 0)
(-0.00319458 -0.00552772 1.89167e-20)
(-0.00822464 0.00348878 0)
(-0.0145772 0.0113953 8.36701e-21)
(-0.0221397 0.0180862 0)
(-0.0308648 0.023803 -1.26808e-20)
(-0.0408129 0.0288573 -1.16405e-20)
(-0.0519663 0.033536 0)
(-0.0641954 0.038007 -1.00646e-20)
(-0.0772839 0.0422805 9.43253e-21)
(-0.0909601 0.0462384 8.88632e-21)
(-0.104929 0.0496983 0)
(-0.118902 0.0524744 0)
(-0.132634 0.0544251 7.69049e-21)
(-0.145939 0.0554733 -7.37275e-21)
(-0.158693 0.0556066 0)
(-0.17083 0.0548745 -1.39266e-20)
(-0.182321 0.0533741 0)
(-0.193161 0.0512247 0)
(-0.203353 0.0485526 -6.56353e-21)
(-0.212893 0.0454776 -6.43449e-21)
(-0.221771 0.0421051 -6.22601e-21)
(-0.229965 0.0385222 7.08687e-23)
(-0.237444 0.034797 0)
(-0.244167 0.0309812 0)
(-0.250089 0.0271132 -5.52655e-21)
(-0.255163 0.0232214 -5.34828e-21)
(-0.259342 0.0193282 -5.00426e-21)
(-0.262581 0.0154527 0)
(-0.26484 0.0116132 -1.31586e-20)
(-0.266086 0.0078288 0)
(-0.266293 0.00412161 0)
(-0.265438 0.000517285 0)
(-0.263501 -0.00295946 0)
(-0.260463 -0.00629445 6.1276e-21)
(-0.256313 -0.00947718 0)
(-0.251061 -0.012491 7.94778e-22)
(-0.244727 -0.0153176 -5.7371e-22)
(-0.237344 -0.0179408 1.18689e-21)
(-0.228953 -0.0203464 2.28578e-21)
(-0.219604 -0.0225228 0)
(-0.209356 -0.0244615 0)
(-0.198274 -0.0261573 6.42666e-21)
(-0.186428 -0.0276086 0)
(-0.173892 -0.0288179 -1.82066e-20)
(-0.160741 -0.0297935 0)
(-0.14706 -0.0305412 3.16885e-22)
(-0.132919 -0.0310669 0)
(-0.118395 -0.0313881 3.25589e-22)
(-0.103568 -0.0315233 3.21875e-20)
(-0.0885089 -0.0314826 0)
(-0.0732876 -0.0312789 0)
(-0.0579715 -0.0309281 -2.02452e-20)
(-0.0426232 -0.0304473 2.15221e-20)
(-0.0273011 -0.0298529 0)
(-0.0120586 -0.0291611 -2.39869e-20)
(0.00305562 -0.0283875 0)
(0.0179974 -0.0275467 -2.58425e-20)
(0.0327274 -0.0266521 0)
(0.0472112 -0.0257152 0)
(0.061419 -0.0247455 0)
(0.0753252 -0.0237519 0)
(0.0889092 -0.0227439 5.71845e-20)
(0.102154 -0.0217318 0)
(0.115045 -0.0207241 5.95127e-20)
(0.12757 -0.0197273 0)
(0.139722 -0.0187465 4.12572e-22)
(0.151496 -0.0177858 -6.17626e-20)
(0.162888 -0.0168486 0)
(0.173897 -0.0159377 6.26468e-20)
(0.184527 -0.0150553 0)
(0.194778 -0.0142033 6.3752e-20)
(0.204655 -0.013383 6.45447e-20)
(0.214164 -0.0125954 6.49964e-20)
(0.22331 -0.0118411 6.54218e-20)
(0.232102 -0.0111201 -6.55796e-20)
(0.240547 -0.0104324 0)
(0.248654 -0.00977764 0)
(0.256432 -0.00915546 0)
(0.263891 -0.00856514 -6.72579e-20)
(0.271042 -0.00800593 6.72257e-20)
(0.277894 -0.00747691 0)
(0.284458 -0.00697718 6.82083e-20)
(0.290744 -0.00650569 0)
(0.296762 -0.00606142 0)
(0.302523 -0.00564311 -1.37937e-19)
(0.308036 -0.00524928 0)
(0.31331 -0.00487784 -6.96802e-20)
(0.318355 -0.00452636 0)
(0.323176 -0.00419146 -1.40328e-19)
(0.327779 -0.00386857 -1.40939e-19)
(0.332162 -0.00355044 1.41564e-19)
(0.336323 -0.00322599 0)
(0.340238 -0.00287511 -1.42902e-19)
(0.343893 -0.00246633 0)
(0.347173 -0.0019344 1.44717e-19)
(0.350145 -0.00117208 0)
(0.352113 7.98006e-05 1.46731e-19)
(0.354294 0.00238966 -2.90342e-22)
(0.352599 0.00691866 -1.50183e-19)
(-0.00186512 -0.00795347 0)
(-0.00752492 0.00166358 0)
(-0.0142956 0.0120127 0)
(-0.0220751 0.0208776 -1.31275e-20)
(-0.0307243 0.0285701 0)
(-0.0401523 0.0353576 5.63347e-23)
(-0.0504137 0.0414597 9.37843e-21)
(-0.0614701 0.0470379 0)
(-0.0731699 0.0521561 1.63328e-20)
(-0.0852908 0.0567656 -7.68244e-21)
(-0.0975843 0.0607383 -7.26844e-21)
(-0.109814 0.0639223 0)
(-0.121781 0.0661922 0)
(-0.133344 0.0674784 -6.37943e-21)
(-0.144414 0.0677735 -6.2909e-21)
(-0.15495 0.0671242 0)
(-0.164947 0.0656198 5.8848e-21)
(-0.174415 0.0633734 0)
(-0.183368 0.0605089 0)
(-0.191813 0.0571458 5.58426e-21)
(-0.199748 0.053392 1.10964e-20)
(-0.207154 0.0493407 1.10006e-20)
(-0.214003 0.0450681 5.48577e-21)
(-0.220253 0.0406348 0)
(-0.225856 0.0360877 0)
(-0.23076 0.0314634 0)
(-0.23491 0.0267916 4.62991e-21)
(-0.23825 0.0220975 0)
(-0.240731 0.0174049 0)
(-0.242306 0.0127377 7.66901e-21)
(-0.242933 0.00812137 0)
(-0.242579 0.00358363 -6.44012e-21)
(-0.241216 -0.00084583 0)
(-0.238819 -0.00513936 0)
(-0.235373 -0.00927441 -3.60662e-21)
(-0.230876 -0.0132295 0)
(-0.225341 -0.0169799 1.75332e-21)
(-0.218787 -0.0205008 -1.82128e-22)
(-0.211246 -0.02377 -1.04147e-21)
(-0.20276 -0.0267685 -1.56397e-21)
(-0.193375 -0.0294811 -2.72188e-21)
(-0.183148 -0.0318967 0)
(-0.172141 -0.0340084 0)
(-0.16042 -0.035814 6.27426e-21)
(-0.148054 -0.0373158 1.51318e-20)
(-0.135118 -0.038523 -1.73045e-20)
(-0.12169 -0.039445 2.96937e-20)
(-0.107835 -0.0400913 2.19996e-20)
(-0.0936278 -0.0404801 -1.19424e-20)
(-0.0791423 -0.0406342 -1.34841e-20)
(-0.0644451 -0.0405675 0)
(-0.049603 -0.0402967 0)
(-0.0346786 -0.0398419 0)
(-0.0197307 -0.0392239 0)
(-0.00481358 -0.0384636 0)
(0.0100227 -0.0375813 0)
(0.024732 -0.0365963 0)
(0.0392732 -0.0355266 4.12762e-20)
(0.0536097 -0.0343888 0)
(0.0677092 -0.0331976 0)
(0.0815439 -0.0319656 -4.4542e-20)
(0.0950907 -0.0307038 -4.5479e-20)
(0.108331 -0.0294244 -9.30181e-20)
(0.121249 -0.0281398 0)
(0.133831 -0.0268603 0)
(0.146065 -0.0255941 0)
(0.157944 -0.0243478 9.87127e-20)
(0.169463 -0.0231266 4.98089e-20)
(0.180618 -0.021935 0)
(0.19141 -0.0207765 -2.3627e-22)
(0.201839 -0.0196539 0)
(0.211909 -0.0185696 5.15544e-20)
(0.221622 -0.0175253 1.04352e-19)
(0.230984 -0.0165223 0)
(0.240001 -0.015561 1.05833e-19)
(0.24868 -0.0146418 -5.30829e-20)
(0.257028 -0.0137647 0)
(0.265055 -0.0129291 0)
(0.272768 -0.0121347 1.08333e-19)
(0.280178 -0.0113805 0)
(0.287294 -0.0106657 -2.19093e-19)
(0.294125 -0.00998902 0)
(0.300682 -0.00934943 0)
(0.306974 -0.00874557 0)
(0.313012 -0.00817613 0)
(0.318805 -0.00763954 1.12018e-19)
(0.324362 -0.00713395 -1.12275e-19)
(0.329694 -0.00665684 0)
(0.334807 -0.00620516 1.13167e-19)
(0.33971 -0.00577477 1.54787e-22)
(0.344406 -0.00536 1.14213e-19)
(0.348898 -0.00495207 -1.14667e-19)
(0.353182 -0.0045374 0)
(0.35724 -0.00409265 1.15636e-19)
(0.361063 -0.00358017 0)
(0.364553 -0.00292854 -2.33386e-19)
(0.367775 -0.00201063 0)
(0.370195 -0.000571523 -3.55082e-19)
(0.372855 0.00196698 -1.18735e-19)
(0.372828 0.00653001 1.2056e-19)
(-0.00320294 -0.0015341 0)
(-0.0106375 0.0112217 -2.51926e-20)
(-0.0184996 0.0222302 0)
(-0.0271395 0.03152 1.11583e-20)
(-0.0363189 0.0397279 0)
(-0.0458964 0.0471001 8.64411e-21)
(-0.0559129 0.0537542 -7.99749e-21)
(-0.0663269 0.0597408 0)
(-0.0770034 0.0650452 -7.02194e-21)
(-0.0877618 0.0695905 6.72294e-21)
(-0.0984179 0.0732667 0)
(-0.108815 0.0759705 0)
(-0.11884 0.0776379 5.97038e-21)
(-0.128425 0.0782585 5.80212e-21)
(-0.137545 0.0778723 -5.79868e-21)
(-0.1462 0.0765582 0)
(-0.154408 0.074421 0)
(-0.162189 0.0715772 0)
(-0.169558 0.0681425 -1.06018e-20)
(-0.176519 0.0642241 1.04553e-20)
(-0.183063 0.0599174 -5.02916e-21)
(-0.189169 0.0553032 -9.90007e-21)
(-0.1948 0.0504482 2.22867e-22)
(-0.199912 0.0454058 9.7149e-21)
(-0.204453 0.0402194 9.45028e-21)
(-0.208366 0.0349247 0)
(-0.211595 0.0295525 -8.77818e-21)
(-0.214082 0.0241317 -8.36037e-21)
(-0.215773 0.0186909 0)
(-0.21662 0.0132599 0)
(-0.216579 0.00787043 0)
(-0.215615 0.00255657 5.90232e-21)
(-0.213699 -0.00264635 0)
(-0.21081 -0.00770421 0)
(-0.206935 -0.0125851 0)
(-0.202078 -0.017258 0)
(-0.196251 -0.021691 1.49013e-22)
(-0.189476 -0.0258533 6.2024e-22)
(-0.181784 -0.0297175 1.44323e-22)
(-0.173216 -0.0332603 1.42598e-21)
(-0.163818 -0.0364634 2.47912e-21)
(-0.153644 -0.0393133 6.80961e-21)
(-0.142752 -0.041802 8.95699e-21)
(-0.131205 -0.0439263 -5.69295e-21)
(-0.11907 -0.0456889 -6.76463e-21)
(-0.106416 -0.0470998 1.56537e-20)
(-0.0933148 -0.0481721 -2.79909e-22)
(-0.0798288 -0.0489179 -3.93852e-20)
(-0.0660289 -0.0493576 2.18647e-20)
(-0.0519811 -0.0495172 0)
(-0.0377485 -0.0494144 0)
(-0.0233928 -0.0490693 2.73866e-20)
(-0.00897189 -0.048506 2.92125e-20)
(0.00546054 -0.0477495 0)
(0.019854 -0.0468244 0)
(0.0341624 -0.0457545 0)
(0.0483437 -0.0445624 0)
(0.0623603 -0.0432694 -2.63496e-22)
(0.0761787 -0.0418954 0)
(0.089769 -0.040458 3.76832e-20)
(0.103106 -0.0389727 3.88029e-20)
(0.116168 -0.0374533 7.89759e-20)
(0.12894 -0.0359141 8.04682e-20)
(0.141405 -0.0343688 -4.08114e-20)
(0.153552 -0.0328295 -8.29013e-20)
(0.16537 -0.0313057 0)
(0.176851 -0.0298054 4.2385e-20)
(0.187992 -0.0283351 4.28951e-20)
(0.198789 -0.0269 8.71002e-20)
(0.209242 -0.0255045 -4.41539e-20)
(0.219351 -0.024152 0)
(0.22912 -0.0228453 -8.98043e-20)
(0.238551 -0.0215864 -1.80638e-19)
(0.24765 -0.0203767 0)
(0.256422 -0.019217 -1.83066e-19)
(0.264874 -0.0181076 2.61983e-22)
(0.273013 -0.0170485 9.24723e-20)
(0.280846 -0.0160393 0)
(0.288383 -0.0150793 -9.36532e-20)
(0.295633 -0.0141675 0)
(0.302603 -0.013303 9.44933e-20)
(0.309304 -0.0124842 0)
(0.315745 -0.0117099 0)
(0.321936 -0.0109785 0)
(0.327885 -0.0102885 0)
(0.333603 -0.00963783 9.61499e-20)
(0.339098 -0.00902445 1.93119e-19)
(0.34438 -0.00844538 0)
(0.349456 -0.00789708 -9.72753e-20)
(0.354333 -0.00737475 2.92537e-19)
(0.359017 -0.00687176 0)
(0.363509 -0.00637802 0)
(0.36781 -0.00587786 -1.96934e-19)
(0.371905 -0.00534525 0)
(0.375789 -0.00473761 1.98417e-19)
(0.379382 -0.0039794 2.28359e-22)
(0.382754 -0.00293213 0)
(0.385488 -0.00135182 3.24359e-22)
(0.388517 0.00131513 0)
(0.389645 0.00577855 -2.03233e-19)
(-0.00403472 0.00686603 0)
(-0.0124817 0.0222415 2.18665e-20)
(-0.0209129 0.0334111 0)
(-0.0299223 0.0426884 9.78917e-21)
(-0.0391711 0.0509768 8.46049e-21)
(-0.0484797 0.0584904 0)
(-0.0578794 0.06526 7.10318e-21)
(-0.0673421 0.071253 0)
(-0.076771 0.0764039 6.40319e-21)
(-0.0860436 0.0806284 6.22276e-21)
(-0.0950454 0.0838432 1.17719e-20)
(-0.10369 0.0859906 0)
(-0.111927 0.0870549 5.66553e-21)
(-0.11974 0.0870654 -5.26671e-21)
(-0.127133 0.0860893 1.03205e-20)
(-0.134129 0.0842199 0)
(-0.140752 0.0815641 1.02885e-20)
(-0.147022 0.0782325 0)
(-0.152952 0.0743304 9.78699e-21)
(-0.158542 0.0699527 2.54773e-22)
(-0.163777 0.065182 0)
(-0.168633 0.0600879 9.67159e-21)
(-0.173072 0.0547281 2.26345e-22)
(-0.177046 0.0491502 2.17239e-22)
(-0.180504 0.0433943 -1.79367e-20)
(-0.183389 0.0374957 0)
(-0.185643 0.0314871 8.26674e-21)
(-0.187211 0.0254011 7.88695e-21)
(-0.188039 0.0192715 0)
(-0.18808 0.0131343 0)
(-0.187293 0.00702803 0)
(-0.185644 0.000993842 0)
(-0.183107 -0.00492626 0)
(-0.179665 -0.0106903 0)
(-0.175312 -0.0162577 0)
(-0.170052 -0.0215889 0)
(-0.1639 -0.0266454 -1.65608e-21)
(-0.15688 -0.0313909 0)
(-0.149024 -0.0357936 4.72256e-22)
(-0.140372 -0.0398263 -2.20373e-21)
(-0.130969 -0.0434681 0)
(-0.120867 -0.0467037 -1.26215e-20)
(-0.110121 -0.0495241 -1.66527e-20)
(-0.0987894 -0.0519261 0)
(-0.086934 -0.0539124 0)
(-0.074621 -0.0554942 -1.42167e-20)
(-0.0619135 -0.0566879 -1.63612e-20)
(-0.0488717 -0.0575082 1.82751e-20)
(-0.0355605 -0.0579781 0)
(-0.0220378 -0.0581268 0)
(-0.00836267 -0.0579748 0)
(0.00540974 -0.057546 -2.53237e-20)
(0.0192265 -0.0568684 -2.0078e-22)
(0.0330391 -0.0559704 0)
(0.0468025 -0.0548799 2.90323e-20)
(0.0604753 -0.0536242 0)
(0.07402 -0.0522291 0)
(0.0874028 -0.050719 -3.2405e-20)
(0.100593 -0.0491166 0)
(0.113565 -0.0474422 3.37863e-20)
(0.126295 -0.045714 0)
(0.138765 -0.0439485 -3.56578e-20)
(0.15096 -0.0421616 3.59712e-20)
(0.162866 -0.0403683 -3.65902e-20)
(0.174471 -0.0385818 7.49818e-20)
(0.185768 -0.0368132 -7.56915e-20)
(0.196748 -0.0350715 -7.6957e-20)
(0.207409 -0.0333643 -7.7825e-20)
(0.217747 -0.0316977 -1.56957e-19)
(0.227762 -0.0300768 -7.9078e-20)
(0.237454 -0.0285055 0)
(0.246826 -0.026987 -8.03938e-20)
(0.255882 -0.0255237 8.12196e-20)
(0.264624 -0.0241172 -8.15159e-20)
(0.27306 -0.0227684 8.22375e-20)
(0.281195 -0.0214777 1.65173e-19)
(0.289035 -0.0202451 -8.31154e-20)
(0.296588 -0.0190702 0)
(0.303863 -0.0179521 8.37001e-20)
(0.310867 -0.0168899 8.4058e-20)
(0.317609 -0.0158823 0)
(0.324097 -0.0149277 8.47147e-20)
(0.33034 -0.0140247 -8.50165e-20)
(0.336348 -0.0131714 0)
(0.34213 -0.012366 0)
(0.347693 -0.0116062 -8.5961e-20)
(0.353048 -0.0108897 -2.58381e-19)
(0.358202 -0.0102131 -1.72664e-19)
(0.363163 -0.00957244 0)