/*--------------------------------*- C++ -*----------------------------------*\
| =========                 |                                                 |
| \\      /  F ield         | OpenFOAM: The Open Source CFD Toolbox           |
|  \\    /   O peration     | Version:  5.x                                   |
|   \\  /    A nd           | Web:      www.OpenFOAM.org                      |
|    \\/     M anipulation  |                                                 |
\*---------------------------------------------------------------------------*/
FoamFile
{
    version     2.0;
    format      ascii;
    class       volScalarField;
    location    "231";
    object      nut;
}
// * * * * * * * * * * * * * * * * * * * * * * * * * * * * * * * * * * * * * //

dimensions      [0 2 -1 0 0 0 0];

internalField   nonuniform List<scalar> 
5760
(
8.00632e-05
7.89752e-05
7.84494e-05
7.75551e-05
7.7071e-05
7.62374e-05
7.58777e-05
7.52242e-05
7.5036e-05
7.46778e-05
7.46561e-05
7.46828e-05
7.48187e-05
7.5142e-05
7.54151e-05
7.60831e-05
7.61913e-05
7.84309e-05
0.000659998
0.000513534
0.000443648
0.000397359
0.000370325
0.000346744
0.000334497
0.000319954
0.000318295
0.000306837
0.000311418
0.000301208
0.000309346
0.000299438
0.000309757
0.000299438
0.000311172
0.000291909
0.000834817
0.000812596
0.000774415
0.000726044
0.000692097
0.000652718
0.000627903
0.000596884
0.000579611
0.000553398
0.00054189
0.000518603
0.000511093
0.000490476
0.000484277
0.000468746
0.000458115
0.000442948
0.000850822
0.000849994
0.0008448
0.000836493
0.000829662
0.000812479
0.000803081
0.000784536
0.000775012
0.000756923
0.000748035
0.000731211
0.000722907
0.000707715
0.0006997
0.000686393
0.000677784
0.000665238
0.000851997
0.000851517
0.000851726
0.000850758
0.000849798
0.000848332
0.000846631
0.000842926
0.000840593
0.0008356
0.000832709
0.000826982
0.000823794
0.000817736
0.000814366
0.000808279
0.000804753
0.000798478
0.000852004
0.000851679
0.000851743
0.000851463
0.00085151
0.000851159
0.000851181
0.000850693
0.000850461
0.000849838
0.000849257
0.000848533
0.000847573
0.000846821
0.000845475
0.00084471
0.000842947
0.00084175
0.000851948
0.000851749
0.000851676
0.000851503
0.000851436
0.000851286
0.000851221
0.000851101
0.000851025
0.000850916
0.000850818
0.000850697
0.000850573
0.000850419
0.000850277
0.00085007
0.000849919
0.000849647
0.000851923
0.000851772
0.000851652
0.000851518
0.000851407
0.000851287
0.000851186
0.000851081
0.000850989
0.000850895
0.000850812
0.000850727
0.000850652
0.000850573
0.000850505
0.00085043
0.000850364
0.000850293
0.000851917
0.000851776
0.000851646
0.000851519
0.000851401
0.000851286
0.000851178
0.000851073
0.000850975
0.00085088
0.000850791
0.000850705
0.000850624
0.000850546
0.000850473
0.000850402
0.000850336
0.00085027
0.000851916
0.000851776
0.000851644
0.000851518
0.000851398
0.000851283
0.000851174
0.000851069
0.00085097
0.000850874
0.000850784
0.000850696
0.000850614
0.000850534
0.000850459
0.000850385
0.000850317
0.000850249
0.000851916
0.000851776
0.000851644
0.000851516
0.000851396
0.00085128
0.000851171
0.000851065
0.000850965
0.000850868
0.000850778
0.000850689
0.000850607
0.000850525
0.00085045
0.000850374
0.000850306
0.000850236
0.000851916
0.000851776
0.000851644
0.000851515
0.000851395
0.000851278
0.000851169
0.000851061
0.000850962
0.000850864
0.000850773
0.000850683
0.000850601
0.000850518
0.000850444
0.000850367
0.000850299
0.000850229
0.000851916
0.000851775
0.000851644
0.000851514
0.000851395
0.000851277
0.000851169
0.00085106
0.000850963
0.000850864
0.000850775
0.000850684
0.000850603
0.000850519
0.000850445
0.000850368
0.0008503
0.000850228
0.000851919
0.000851773
0.000851646
0.000851513
0.000851397
0.000851275
0.000851169
0.000851057
0.000850962
0.000850861
0.000850775
0.000850685
0.000850607
0.000850526
0.000850455
0.000850383
0.000850318
0.000850254
0.00085192
0.000851771
0.000851648
0.000851512
0.0008514
0.000851278
0.000851178
0.000851073
0.000850982
0.000850891
0.000850804
0.000850726
0.00085064
0.000850572
0.000850484
0.000850428
0.000850337
0.000850291
0.000851889
0.000851799
0.00085163
0.000851545
0.000851415
0.000851379
0.000851284
0.000851268
0.000851146
0.000851112
0.000850931
0.000850855
0.000850602
0.000850474
0.000850143
0.00084996
0.000849553
0.000849314
0.000851623
0.000852046
0.00085144
0.000851947
0.000851374
0.000851093
0.000849822
0.000848329
0.000845994
0.00084371
0.000840117
0.000837106
0.000832354
0.000828749
0.000823031
0.000818861
0.000812473
0.000807642
0.000850193
0.00085099
0.000842928
0.000839519
0.00081512
0.000801987
0.000767509
0.000748783
0.000709024
0.000687773
0.00064622
0.000624344
0.000584272
0.000562534
0.000526517
0.000505023
0.000473914
0.000453702
0.000787199
0.000776061
0.000600528
0.000502078
0.000379034
0.000328644
0.000258066
0.000230472
0.00018769
0.000170703
0.00014415
0.000132846
0.000115926
0.000108191
9.71348e-05
9.17444e-05
8.43274e-05
8.04752e-05
0.000180515
0.000177145
4.76105e-05
5.28831e-05
5.89775e-05
6.46047e-05
7.05653e-05
7.62342e-05
8.20146e-05
8.75523e-05
9.30532e-05
9.83205e-05
0.000103458
0.000108361
0.000113079
0.000117563
0.000121837
0.000125882
7.66387e-05
0.00015488
0.000179625
0.000194067
0.00020878
0.000221182
0.000343091
0.000356135
0.000451322
6.30017e-05
5.61685e-05
5.7273e-05
6.02762e-05
6.48211e-05
7.01103e-05
7.60426e-05
8.25366e-05
8.94125e-05
9.65018e-05
0.000103668
0.000110784
0.000117798
0.000124683
0.00013143
0.000138041
0.000144528
0.000150905
0.000157188
0.000163391
0.000169529
0.000175614
0.000181654
0.000187657
0.000193629
0.00019957
0.000205483
0.000211364
0.000217212
0.000223021
0.000228786
0.000234499
0.000240153
0.000245739
0.000251248
0.000256671
0.000261996
0.000267214
0.000272315
0.000277288
0.000282122
0.000286805
0.000291326
0.000295671
0.000299824
0.000303766
0.000307481
0.000310962
0.000314264
0.000317351
0.000320222
0.000322875
0.000325301
0.000327497
0.000329457
0.000331178
0.000332655
0.000333885
0.000334867
0.000335601
0.000336086
0.000336326
0.000336322
0.00033608
0.000335607
0.000334868
0.000333847
0.000332634
0.000331279
0.000329651
0.000327796
0.00032573
0.000323464
0.000321006
0.000318364
0.000315549
0.000312569
0.000309439
0.000306168
0.000302772
0.000299262
0.000295656
0.000291964
0.00028821
0.000284413
0.000280938
0.000278541
0.000276285
0.000273776
0.000271493
0.000264821
0.000139643
0.000237738
0.000315938
0.000385708
0.000439656
0.000456487
0.000478616
0.000476225
0.00045344
0.000380737
0.00036608
0.000367575
0.000374604
0.000383974
0.000396555
0.000413851
0.000436406
0.000463988
0.000496009
0.000533005
0.000573337
0.000615832
0.000660285
0.000706087
0.000752809
0.000800126
0.000847832
0.000895816
0.000944036
0.000992508
0.00104129
0.00109045
0.0011401
0.0011903
0.00124115
0.00129271
0.00134501
0.00139811
0.001452
0.00150669
0.00156214
0.00161831
0.00167515
0.00173257
0.00179049
0.00184881
0.00190741
0.00196619
0.00202503
0.0020838
0.00214239
0.0022007
0.00225859
0.00231592
0.00237244
0.00242753
0.00247974
0.00252588
0.00257115
0.00261487
0.00265706
0.00269762
0.00273645
0.00277346
0.00280857
0.00284168
0.00287273
0.00290165
0.00292838
0.00295286
0.00297507
0.00299499
0.00301267
0.00302829
0.00304219
0.00305188
0.00305887
0.00306571
0.00306989
0.00307131
0.0030704
0.00306726
0.00306198
0.00305461
0.00304523
0.00303392
0.0030208
0.00300598
0.0029896
0.00297179
0.00295273
0.00293253
0.00291134
0.00288891
0.00286057
0.00282178
0.00278116
0.00273902
0.00269473
0.0026064
0.000245587
0.000365016
0.000448162
0.000511678
0.000550887
0.000579453
0.000599356
0.000609499
0.000611757
0.000607213
0.000615524
0.000633593
0.000659238
0.000691666
0.000731684
0.000780164
0.000837282
0.000902593
0.00097522
0.00105219
0.00113331
0.00122082
0.00131032
0.00140141
0.00149348
0.00158616
0.00167928
0.00177284
0.00186687
0.00196146
0.0020567
0.00215276
0.00224981
0.00234796
0.00244733
0.00254801
0.00265002
0.00275341
0.00285815
0.0029642
0.00307149
0.00317991
0.00328933
0.0033996
0.00351054
0.00362196
0.00373366
0.0038454
0.00395698
0.00406815
0.00417866
0.00428827
0.00439667
0.0045035
0.00460821
0.00470998
0.00480757
0.0049004
0.004991
0.00507864
0.00516322
0.00524452
0.00532234
0.0053965
0.00546683
0.00553317
0.00559537
0.0056533
0.00570682
0.00575583
0.00580026
0.00584008
0.00587541
0.00590647
0.00593445
0.00595465
0.00596849
0.00598209
0.0059899
0.00599269
0.00599079
0.00598438
0.00597359
0.00595855
0.00593942
0.00591638
0.00588962
0.00585938
0.0058259
0.00578946
0.00575035
0.00570885
0.00566523
0.00561924
0.00556677
0.00550334
0.00543657
0.00536634
0.00529004
0.00514346
0.000359828
0.00047734
0.000556549
0.000621387
0.000670511
0.000703987
0.000729028
0.000750022
0.000770189
0.000792298
0.000822029
0.000860519
0.000908188
0.000965623
0.00103353
0.00111219
0.00120118
0.00129947
0.00140568
0.00151831
0.00163639
0.00175627
0.00187858
0.00200263
0.00212786
0.00225389
0.00238058
0.00250815
0.00263669
0.00276642
0.00289776
0.0030304
0.00316449
0.00330015
0.00343748
0.00357655
0.00371739
0.00386
0.00400432
0.00415028
0.00429775
0.00444657
0.00459656
0.0047475
0.00489914
0.00505122
0.00520345
0.00535554
0.00550718
0.00565804
0.00580777
0.005956
0.00610235
0.00624632
0.00638735
0.00652473
0.00665763
0.00678622
0.00691141
0.00703267
0.00714974
0.00726237
0.00737028
0.00747322
0.00757097
0.00766332
0.00775006
0.007831
0.00790597
0.00797482
0.00803743
0.00809376
0.0081439
0.00818845
0.00822912
0.0082579
0.00828011
0.00830055
0.0083133
0.00831929
0.0083189
0.00831231
0.00829971
0.00828126
0.00825716
0.00822763
0.00819293
0.00815335
0.00810919
0.00806082
0.0080086
0.00795291
0.00789411
0.00783212
0.0077642
0.00768717
0.00760616
0.00752086
0.00742705
0.00726078
0.000402377
0.000562104
0.000654379
0.000730314
0.0007876
0.000829048
0.000861887
0.000893008
0.000926866
0.000966315
0.00101411
0.00107183
0.0011405
0.00122086
0.00131314
0.00141701
0.00153149
0.0016552
0.00178656
0.00192398
0.00206599
0.00221088
0.00235837
0.00250786
0.00265897
0.00281155
0.00296554
0.00312071
0.00327711
0.00343479
0.00359369
0.00375416
0.00391639
0.00408049
0.00424652
0.00441452
0.00458449
0.00475637
0.00493008
0.00510549
0.00528245
0.00546073
0.00564012
0.00582035
0.00600111
0.00618211
0.00636301
0.00654346
0.0067231
0.00690155
0.00707843
0.00725333
0.0074258
0.00759538
0.00776159
0.00792396
0.00808231
0.00823637
0.00838627
0.0085316
0.00867206
0.00880733
0.00893712
0.00906115
0.00917916
0.00929089
0.00939612
0.00949461
0.00958616
0.0096706
0.00974775
0.00981753
0.0098799
0.00993666
0.00998802
0.0100248
0.0100563
0.0100839
0.0101028
0.0101139
0.0101174
0.0101136
0.0101027
0.0100849
0.0100604
0.0100293
0.00999208
0.00994892
0.00990018
0.00984625
0.00978753
0.00972445
0.00965744
0.00958661
0.00951045
0.00942703
0.00933955
0.00924771
0.00914636
0.00898168
0.000638399
0.000650562
0.000745645
0.000834197
0.000902156
0.000952351
0.000993532
0.00103415
0.00107966
0.00113313
0.0011966
0.00127143
0.00135849
0.00145814
0.00157014
0.00169367
0.00182749
0.0019701
0.00211995
0.00227557
0.00243565
0.00259907
0.00276529
0.00293378
0.00310419
0.00327631
0.00345
0.00362514
0.00380172
0.00397977
0.00415933
0.00434062
0.00452374
0.00470878
0.00489577
0.00508472
0.00527561
0.00546835
0.00566286
0.00585898
0.00605655
0.00625533
0.0064551
0.00665556
0.00685644
0.00705739
0.00725809
0.00745817
0.00765726
0.00785497
0.0080509
0.00824465
0.00843578
0.00862384
0.00880843
0.00898914
0.00916572
0.00933789
0.00950552
0.00966823
0.00982568
0.00997755
0.0101235
0.0102633
0.0103965
0.010523
0.0106425
0.0107547
0.0108594
0.0109563
0.0110454
0.0111264
0.0111993
0.0112668
0.0113265
0.0113719
0.0114125
0.0114473
0.0114729
0.0114899
0.0114987
0.0114996
0.0114925
0.0114779
0.0114558
0.0114264
0.0113902
0.0113472
0.011298
0.0112428
0.0111821
0.0111163
0.0110459
0.0109712
0.0108915
0.0108058
0.0107163
0.010623
0.0105202
0.0103665
0.000624437
0.000665916
0.000807541
0.000924787
0.00100912
0.00107029
0.0011207
0.00117067
0.00122669
0.00129221
0.00136911
0.00145842
0.00156061
0.00167561
0.0018028
0.0019411
0.00208915
0.0022455
0.00240872
0.00257755
0.00275088
0.00292775
0.00310757
0.00328984
0.00347426
0.00366054
0.00384856
0.00403825
0.00422951
0.00442228
0.00461663
0.00481265
0.00501043
0.00521001
0.0054114
0.0056146
0.00581958
0.00602627
0.00623456
0.00644432
0.00665539
0.00686756
0.0070806
0.00729427
0.00750828
0.00772231
0.00793606
0.00814916
0.00836127
0.00857199
0.00878094
0.00898771
0.0091919
0.00939308
0.00959085
0.00978485
0.00997474
0.0101602
0.010341
0.0105168
0.0106871
0.0108517
0.0110102
0.0111623
0.0113076
0.0114459
0.011577
0.0117004
0.0118161
0.0119236
0.0120229
0.0121137
0.012196
0.0122729
0.0123399
0.0123941
0.0124434
0.0124856
0.0125181
0.0125417
0.0125566
0.0125631
0.0125613
0.0125514
0.0125335
0.012508
0.012475
0.0124348
0.0123877
0.0123341
0.0122744
0.0122091
0.0121385
0.0120632
0.0119831
0.0118978
0.011809
0.011717
0.0116164
0.0114779
6.13584e-05
0.000517063
0.000821043
0.000996594
0.00110529
0.00118011
0.00124075
0.00130009
0.00136576
0.00144171
0.00152983
0.00163088
0.00174493
0.00187158
0.00201015
0.00215923
0.00231744
0.00248339
0.0026558
0.00283339
0.00301551
0.00320152
0.00339079
0.00358273
0.00377651
0.00397218
0.00416963
0.00436899
0.00456998
0.00477239
0.00497621
0.00518151
0.00538836
0.00559677
0.00580678
0.00601838
0.00623156
0.00644627
0.00666245
0.00687999
0.00709876
0.00731863
0.00753938
0.00776081
0.00798268
0.0082047
0.00842659
0.00864802
0.00886863
0.00908808
0.00930598
0.00952192
0.0097355
0.00994632
0.010154
0.010358
0.0105582
0.010754
0.0109452
0.0111314
0.0113122
0.0114872
0.011656
0.0118184
0.011974
0.0121224
0.0122634
0.0123967
0.012522
0.012639
0.0127475
0.0128473
0.0129385
0.0130236
0.0130976
0.0131606
0.0132184
0.0132681
0.0133078
0.0133383
0.0133599
0.0133727
0.013377
0.0133728
0.0133605
0.0133401
0.0133118
0.013276
0.0132329
0.0131829
0.0131263
0.0130635
0.0129951
0.0129214
0.0128429
0.0127597
0.0126733
0.0125842
0.0124878
0.0123647
5.61203e-05
0.000502932
0.000849768
0.00106089
0.00119125
0.00128015
0.00135151
0.00142016
0.0014947
0.00157962
0.00167685
0.00178724
0.00191023
0.00204484
0.00218948
0.00234421
0.00250776
0.00267889
0.00285648
0.00303962
0.00322744
0.00341915
0.00361411
0.00381176
0.00401187
0.00421397
0.00441768
0.00462217
0.00482828
0.00503548
0.00524374
0.00545317
0.00566383
0.0058758
0.00608911
0.00630382
0.00651996
0.00673754
0.00695657
0.007177
0.00739878
0.0076218
0.00784595
0.00807105
0.00829691
0.00852329
0.00874991
0.00897648
0.00920266
0.00942808
0.00965237
0.00987511
0.0100959
0.0103143
0.0105298
0.0107422
0.0109508
0.0111554
0.0113554
0.0115506
0.0117405
0.0119246
0.0121027
0.0122743
0.0124391
0.0125967
0.0127469
0.0128893
0.0130236
0.0131495
0.0132668
0.0133751
0.0134751
0.0135673
0.0136487
0.0137206
0.0137867
0.0138442
0.0138913
0.0139289
0.0139576
0.0139773
0.0139883
0.0139908
0.0139847
0.0139704
0.0139481
0.0139179
0.0138801
0.013835
0.0137829
0.0137242
0.0136594
0.0135891
0.0135137
0.0134338
0.0133508
0.0132657
0.0131742
0.0130654
5.61305e-05
0.000507191
0.000879932
0.00111707
0.00126628
0.00136901
0.0014512
0.00152895
0.00161158
0.00170421
0.0018082
0.00192316
0.00205003
0.00218843
0.00233777
0.00249703
0.0026646
0.00283929
0.00302005
0.00320597
0.00339614
0.00358979
0.00378632
0.00398524
0.0041862
0.0043888
0.00459275
0.00479845
0.00500527
0.00521247
0.00542016
0.0056286
0.00583798
0.00604841
0.00626004
0.00647299
0.0066874
0.00690337
0.007121
0.00734035
0.00756141
0.00778418
0.00800857
0.00823448
0.00846173
0.00869012
0.00891938
0.00914921
0.00937926
0.00960916
0.0098385
0.0100668
0.0102937
0.0105187
0.0107412
0.0109609
0.0111772
0.0113898
0.011598
0.0118015
0.0119999
0.0121927
0.0123794
0.0125598
0.0127334
0.0128999
0.0130589
0.01321
0.0133531
0.0134878
0.0136137
0.0137306
0.013839
0.0139381
0.0140273
0.0141081
0.0141825
0.0142484
0.0143029
0.0143481
0.0143842
0.0144114
0.0144297
0.0144393
0.0144403
0.014433
0.0144174
0.0143937
0.0143622
0.0143231
0.0142767
0.0142234
0.0141636
0.0140978
0.0140267
0.0139509
0.0138721
0.0137916
0.0137054
0.0136095
5.66345e-05
0.000513498
0.00090559
0.00116327
0.00132938
0.00144549
0.00153838
0.001625
0.00171432
0.00181032
0.00191715
0.00203628
0.00216759
0.00230978
0.00246192
0.0026223
0.00279017
0.00296452
0.00314438
0.00332878
0.00351692
0.00370817
0.00390197
0.00409772
0.00429505
0.00449367
0.004693
0.00489448
0.00509676
0.00529907
0.00550097
0.00570325
0.00590628
0.00611032
0.00631562
0.00652245
0.0067311
0.0069418
0.00715474
0.00737006
0.00758785
0.00780815
0.00803091
0.00825603
0.00848336
0.00871268
0.00894369
0.00917608
0.00940945
0.00964338
0.0098774
0.010111
0.0103438
0.0105751
0.0108044
0.0110313
0.0112552
0.0114755
0.0116917
0.0119035
0.0121102
0.0123115
0.0125069
0.0126959
0.0128782
0.0130534
0.0132212
0.0133811
0.0135329
0.0136763
0.0138109
0.0139365
0.0140532
0.0141599
0.0142567
0.0143463
0.0144297
0.0145042
0.0145664
0.0146196
0.0146636
0.0146987
0.0147249
0.0147423
0.0147511
0.0147514
0.0147433
0.0147271
0.0147028
0.0146708
0.0146311
0.0145841
0.0145303
0.0144701
0.0144043
0.0143336
0.0142596
0.014184
0.0141032
0.014019
5.72043e-05
0.0005166
0.000923431
0.00119833
0.00137993
0.00150882
0.00161117
0.00170302
0.00179618
0.00189741
0.00200902
0.00213151
0.00226401
0.00240598
0.00255651
0.00271453
0.00287912
0.00304932
0.00322428
0.00340333
0.00358513
0.0037689
0.00395428
0.00414104
0.00432902
0.00451838
0.00471036
0.00490206
0.00509316
0.00528428
0.00547492
0.00566592
0.00585789
0.00605121
0.00624628
0.00644358
0.00664355
0.00684655
0.00705288
0.00726271
0.00747617
0.00769328
0.007914
0.00813819
0.00836564
0.00859608
0.00882915
0.00906447
0.00930157
0.00953995
0.00977909
0.0100184
0.0102574
0.0104954
0.0107318
0.0109661
0.0111976
0.0114259
0.0116503
0.0118704
0.0120856
0.0122955
0.0124995
0.0126972
0.0128883
0.0130724
0.0132489
0.0134177
0.0135784
0.0137306
0.0138741
0.0140085
0.0141337
0.0142479
0.0143534
0.0144514
0.0145447
0.0146277
0.0146982
0.0147597
0.0148122
0.0148557
0.0148904
0.0149163
0.0149335
0.0149422
0.0149425
0.0149346
0.0149184
0.0148943
0.0148624
0.0148228
0.014776
0.0147224
0.0146628
0.0145979
0.0145295
0.0144593
0.014384
0.0143103
5.75937e-05
0.000515329
0.000932696
0.00122163
0.00141524
0.00155344
0.00166337
0.0017632
0.00186282
0.00196782
0.0020806
0.00220246
0.00233337
0.00247342
0.00262111
0.00277479
0.00293324
0.00309543
0.00326047
0.00342724
0.00359502
0.00376364
0.00393347
0.00410529
0.00428008
0.00445523
0.00462906
0.00480218
0.00497508
0.00514849
0.00532278
0.00549825
0.00567567
0.00585544
0.00603806
0.00622425
0.00641461
0.00660958
0.00680944
0.00701435
0.00722436
0.00743941
0.00765937
0.00788399
0.00811296
0.0083459
0.00858236
0.00882184
0.00906379
0.00930764
0.00955278
0.00979859
0.0100444
0.0102896
0.0105336
0.0107756
0.0110152
0.0112516
0.0114844
0.011713
0.0119368
0.0121552
0.012368
0.0125745
0.0127744
0.0129673
0.0131528
0.0133306
0.0135002
0.0136614
0.0138138
0.0139572
0.0140911
0.014213
0.014328
0.0144346
0.0145383
0.0146298
0.0147092
0.0147796
0.0148411
0.0148937
0.0149375
0.0149725
0.0149989
0.0150168
0.0150263
0.0150275
0.0150205
0.0150053
0.014982
0.0149508
0.0149121
0.0148661
0.0148137
0.0147556
0.0146934
0.0146291
0.0145594
0.0144955
5.76833e-05
0.000510711
0.00093248
0.00122933
0.00143311
0.00158188
0.00170121
0.00180769
0.00191148
0.00201852
0.00213149
0.0022514
0.00237792
0.00251007
0.0026463
0.00278608
0.0029281
0.00307138
0.00321594
0.00336191
0.00351081
0.00366255
0.00381481
0.00396686
0.00411826
0.00426849
0.00441613
0.00456381
0.00471258
0.00486371
0.00501885
0.00517731
0.0053399
0.00550662
0.00567781
0.00585454
0.00603749
0.00622702
0.00642328
0.00662627
0.00683585
0.00705179
0.00727378
0.00750142
0.00773427
0.0079718
0.00821347
0.00845867
0.0087068
0.0089572
0.0092092
0.00946214
0.00971534
0.00996813
0.0102198
0.0104698
0.0107174
0.010962
0.0112031
0.01144
0.0116722
0.0118992
0.0121205
0.0123358
0.0125444
0.0127461
0.0129404
0.0131271
0.0133057
0.0134759
0.0136375
0.01379
0.0139315
0.0140637
0.0141876
0.0143036
0.0144178
0.0145178
0.0146067
0.0146867
0.0147578
0.0148201
0.0148737
0.0149186
0.014955
0.0149829
0.0150025
0.0150138
0.0150168
0.0150115
0.0149979
0.0149763
0.0149466
0.0149094
0.0148652
0.0148148
0.0147597
0.0147019
0.0146382
0.0145835
5.75897e-05
0.000503144
0.000928007
0.0012341
0.00144796
0.00160464
0.00172921
0.00183799
0.00194098
0.00204384
0.00214894
0.00225722
0.00236733
0.00247953
0.00259381
0.00270954
0.00282776
0.00294886
0.00307011
0.00319103
0.0033116
0.00343137
0.00355018
0.00366716
0.00378071
0.00389479
0.00401193
0.00413272
0.00425829
0.00438977
0.00452804
0.00467385
0.00482737
0.00498701
0.00515248
0.00532566
0.00550715
0.00569702
0.00589513
0.00610119
0.00631484
0.00653562
0.00676306
0.00699661
0.00723571
0.00747975
0.00772811
0.00798016
0.00823525
0.00849271
0.00875186
0.00901204
0.00927256
0.00953276
0.00979194
0.0100495
0.0103048
0.0105572
0.0108062
0.0110512
0.0112916
0.0115269
0.0117566
0.0119803
0.0121975
0.0124081
0.0126112
0.012807
0.0129947
0.0131741
0.0133451
0.0135059
0.013657
0.0138001
0.0139325
0.0140598
0.0141841
0.0142933
0.0143926
0.014483
0.0145647
0.0146376
0.014702
0.0147578
0.0148052
0.0148443
0.0148751
0.0148976
0.0149118
0.0149177
0.0149151
0.0149042
0.014885
0.0148577
0.014823
0.0147812
0.0147343
0.0146837
0.0146264
0.0145808
5.73173e-05
0.000491132
0.000914696
0.00122311
0.00143989
0.00159752
0.00171979
0.00182214
0.00191346
0.00200011
0.00208545
0.00217101
0.00225986
0.00234863
0.00243643
0.00252248
0.00260622
0.00268789
0.00276732
0.00284443
0.00291739
0.00298776
0.00305911
0.00313354
0.0032136
0.00330047
0.00339598
0.00350061
0.00361509
0.0037397
0.00387447
0.00401928
0.00417296
0.00433377
0.00450323
0.00468197
0.00486994
0.00506684
0.00527225
0.00548567
0.00570659
0.00593447
0.00616876
0.00640891
0.00665434
0.00690448
0.00715872
0.00741648
0.00767717
0.00794017
0.00820481
0.0084705
0.0087366
0.00900246
0.00926741
0.00953092
0.00979237
0.0100511
0.0103066
0.0105584
0.0108057
0.0110481
0.0112852
0.0115165
0.0117416
0.0119604
0.0121717
0.0123761
0.0125725
0.012761
0.0129401
0.01311
0.0132727
0.0134251
0.013566
0.0137053
0.013839
0.013958
0.0140682
0.0141697
0.0142626
0.0143471
0.0144233
0.0144912
0.0145508
0.0146024
0.0146458
0.014681
0.0147079
0.0147262
0.014736
0.0147372
0.0147297
0.0147138
0.0146899
0.0146582
0.0146205
0.0145782
0.0145281
0.0144919
5.69779e-05
0.000479046
0.000894139
0.0011954
0.00140342
0.00154861
0.00165524
0.00173984
0.00181401
0.00188022
0.00194101
0.0019977
0.00204908
0.00209587
0.00213874
0.00217701
0.00220962
0.00223543
0.00226043
0.00228774
0.00232024
0.00236009
0.00240921
0.00246934
0.00254214
0.00262801
0.00272691
0.002838
0.00296146
0.00309623
0.00324166
0.00339607
0.00355626
0.0037245
0.00390226
0.00408886
0.00428386
0.00448682
0.00469731
0.00491488
0.00513909
0.0053695
0.00560568
0.00584717
0.00609353
0.00634428
0.0065989
0.00685694
0.00711791
0.00738125
0.00764633
0.00791267
0.00817968
0.0084467
0.00871311
0.00897847
0.00924216
0.00950343
0.00976193
0.0100172
0.0102683
0.0105148
0.0107564
0.010992
0.011221
0.0114447
0.0116608
0.0118709
0.012073
0.0122665
0.0124522
0.0126308
0.0128011
0.0129612
0.0131108
0.0132613
0.0134034
0.0135322
0.0136527
0.0137647
0.0138685
0.013964
0.0140515
0.0141309
0.0142024
0.0142659
0.0143215
0.0143692
0.014409
0.0144405
0.0144635
0.0144777
0.014483
0.0144793
0.0144671
0.0144463
0.0144185
0.0143851
0.0143424
0.0143156
5.64483e-05
0.00046533
0.00086459
0.00114438
0.00132842
0.0014512
0.0015328
0.00158959
0.00162872
0.0016538
0.00166792
0.00167536
0.00167446
0.00166478
0.00164817
0.00163141
0.00161806
0.00161254
0.00161819
0.00163764
0.00167276
0.00172407
0.00179088
0.00187191
0.00196701
0.00207557
0.00219566
0.00232497
0.0024649
0.0026128
0.00276504
0.00292211
0.00308662
0.00325909
0.00343903
0.00362606
0.0038199
0.00402033
0.00422711
0.00443999
0.0046587
0.004883
0.00511263
0.00534729
0.00558667
0.00583043
0.00607813
0.00632948
0.00658408
0.00684143
0.00710088
0.00736212
0.00762458
0.00788758
0.00815048
0.00841303
0.00867454
0.00893411
0.00919078
0.0094443
0.00969405
0.0099398
0.0101819
0.0104199
0.0106518
0.0108797
0.0110996
0.0113148
0.01152
0.0117204
0.011913
0.0120981
0.0122754
0.0124419
0.0125996
0.0127587
0.0129075
0.0130449
0.0131744
0.0132957
0.0134092
0.0135149
0.0136128
0.0137031
0.0137857
0.0138607
0.0139281
0.0139878
0.0140397
0.0140833
0.0141184
0.0141447
0.0141619
0.01417
0.014169
0.0141588
0.0141408
0.0141162
0.0140813
0.0140629
5.59217e-05
0.000449332
0.000823261
0.00106262
0.00120804
0.00128388
0.00131143
0.00131567
0.00130127
0.00126988
0.00122704
0.00117559
0.00112407
0.00107764
0.00104452
0.00102862
0.00103215
0.00105647
0.00110038
0.00116104
0.00123821
0.00133047
0.00143418
0.00154555
0.00166542
0.00179361
0.00192717
0.00206281
0.00219965
0.00234115
0.00248863
0.00264204
0.00280092
0.00296543
0.0031356
0.00331145
0.00349301
0.00368027
0.00387319
0.00407171
0.00427571
0.00448512
0.00469983
0.00491968
0.00514448
0.00537397
0.00560779
0.00584582
0.00608773
0.00633305
0.00658102
0.00683166
0.00708429
0.00733817
0.00759217
0.00784594
0.00809931
0.00835206
0.00860432
0.00885452
0.00910159
0.00934556
0.00958651
0.00982343
0.0100542
0.010283
0.0105024
0.0107179
0.0109269
0.0111299
0.0113257
0.0115146
0.0116964
0.0118667
0.0120318
0.0121968
0.0123507
0.0124952
0.0126325
0.0127625
0.0128849
0.013
0.0131076
0.013208
0.013301
0.0133868
0.0134652
0.0135363
0.0135997
0.0136551
0.0137021
0.0137404
0.0137694
0.0137891
0.0137994
0.0137999
0.0137919
0.013776
0.0137489
0.0137381
5.52482e-05
0.000433961
0.000766209
0.000924648
0.00100065
0.000999893
0.000942436
0.000888126
0.000825092
0.000747516
0.000677795
0.000630423
0.00060671
0.000607828
0.000634574
0.000682956
0.000752011
0.000838188
0.000936086
0.00103896
0.00114977
0.0012679
0.00138815
0.00150691
0.00162373
0.00174019
0.00185909
0.00198223
0.00210904
0.00223922
0.00237318
0.00251126
0.00265364
0.00280058
0.0029523
0.00310902
0.0032709
0.00343808
0.00361064
0.00378861
0.00397198
0.00416081
0.0043551
0.0045548
0.00475982
0.00496996
0.0051849
0.0054048
0.00562931
0.00585794
0.00608975
0.00632429
0.00656135
0.00680068
0.00704267
0.00728582
0.00752975
0.00777357
0.00801717
0.00825943
0.00849916
0.00873695
0.00897293
0.00920544
0.00943179
0.00965685
0.00987543
0.0100894
0.0102977
0.0105009
0.0106987
0.0108904
0.0110755
0.0112489
0.0114206
0.01159
0.0117483
0.0118988
0.0120414
0.012177
0.0123057
0.0124275
0.0125427
0.012651
0.0127526
0.0128475
0.0129356
0.0130168
0.0130907
0.013157
0.0132152
0.0132648
0.0133051
0.0133359
0.0133569
0.0133675
0.0133687
0.0133607
0.01334
0.0133349
5.49635e-05
0.000421418
0.000719416
0.000672513
0.000665074
0.000593422
0.000473561
0.000405465
0.000359978
0.000334371
0.000339364
0.000374149
0.000434802
0.000518741
0.000615736
0.000718582
0.000830219
0.000946174
0.0010607
0.00116813
0.00127097
0.00137081
0.00147047
0.00157191
0.00167557
0.00177908
0.00188413
0.00199126
0.00210089
0.00221325
0.0023287
0.0024476
0.00257028
0.00269702
0.00282809
0.00296374
0.00310419
0.00324962
0.00340019
0.00355592
0.00371689
0.00388332
0.00405529
0.00423281
0.0044159
0.00460433
0.00479786
0.00499631
0.00519971
0.00540752
0.00562058
0.00583776
0.0060585
0.00628229
0.00650863
0.00673698
0.00696718
0.00719807
0.00742988
0.00766087
0.00788995
0.00811868
0.00834588
0.00857147
0.00879344
0.00901337
0.00922886
0.00944017
0.00964677
0.00984751
0.0100423
0.010232
0.0104155
0.0105879
0.0107616
0.0109309
0.0110901
0.0112429
0.0113893
0.0115294
0.0116632
0.0117908
0.0119122
0.0120275
0.0121365
0.0122394
0.0123361
0.0124263
0.0125097
0.012586
0.0126545
0.0127145
0.0127653
0.0128067
0.0128379
0.0128581
0.012868
0.0128676
0.0128534
0.0128526
5.35809e-05
0.000530572
0.00079303
0.000298908
0.000264689
0.000206739
0.000166428
0.000178536
0.000217994
0.000291219
0.000386291
0.000488908
0.000600478
0.000720293
0.000832622
0.0009368
0.00103126
0.00111971
0.00120678
0.0012951
0.00138319
0.00147018
0.00155642
0.00164294
0.00173067
0.00181762
0.00190709
0.00199809
0.00209121
0.0021868
0.00228517
0.00238667
0.00249159
0.00260018
0.00271268
0.00282933
0.00295036
0.00307592
0.00320618
0.00334111
0.00348094
0.00362575
0.00377569
0.00393091
0.00409146
0.00425761
0.00442984
0.00460771
0.00479104
0.00497923
0.00517217
0.00536966
0.0055713
0.00577666
0.00598527
0.00619665
0.00641085
0.00662707
0.00684515
0.00706394
0.00728224
0.00750038
0.00771768
0.00793224
0.00814396
0.00835368
0.00856019
0.00876332
0.00896252
0.00915781
0.00934817
0.00953468
0.00971512
0.00988677
0.0100601
0.0102279
0.0103874
0.0105412
0.0106894
0.010832
0.010969
0.0111005
0.0112264
0.0113468
0.0114617
0.011571
0.0116746
0.0117725
0.0118641
0.0119491
0.0120267
0.0120962
0.0121566
0.0122076
0.0122482
0.0122773
0.0122953
0.0123016
0.0122936
0.0122948
5.26163e-05
2.38474e-05
6.74719e-06
7.167e-05
8.11407e-05
0.00012358
0.000194032
0.000291111
0.000394414
0.000520324
0.000637755
0.000737249
0.000826952
0.000908739
0.000985636
0.00106647
0.00114198
0.00121579
0.00128953
0.00136276
0.00143594
0.00150888
0.00158177
0.00165473
0.00172878
0.0018034
0.00187964
0.00195754
0.00203763
0.00212001
0.00220497
0.00229275
0.00238351
0.00247745
0.00257474
0.00267562
0.00278023
0.0028887
0.00300111
0.00311797
0.00323944
0.0033656
0.00349664
0.00363272
0.00377403
0.00392058
0.00407261
0.00423024
0.00439323
0.00456168
0.00473524
0.00491366
0.00509666
0.00528386
0.00547486
0.00566935
0.00586584
0.0060642
0.00626454
0.0064663
0.00666854
0.00687106
0.00707347
0.00727535
0.00747558
0.00767432
0.00787082
0.00806481
0.00825566
0.00844358
0.00862711
0.00880819
0.00898308
0.00915237
0.00932239
0.00948645
0.0096441
0.00979687
0.00994474
0.0100878
0.010226
0.0103593
0.0104879
0.0106115
0.0107303
0.0108443
0.0109534
0.0110573
0.0111556
0.011248
0.0113334
0.0114112
0.01148
0.0115398
0.0115888
0.0116261
0.0116513
0.0116634
0.0116612
0.0116619
5.5806e-05
2.12183e-05
3.03877e-05
0.000116788
0.000179575
0.000317374
0.000438249
0.00054371
0.000630023
0.000710689
0.000774658
0.000837036
0.000902235
0.000965954
0.0010276
0.00108977
0.00115186
0.00121325
0.00127472
0.00133643
0.00139835
0.00146034
0.00152277
0.00158569