/*--------------------------------*- C++ -*----------------------------------*\
| =========                 |                                                 |
| \\      /  F ield         | OpenFOAM: The Open Source CFD Toolbox           |
|  \\    /   O peration     | Version:  5.x                                   |
|   \\  /    A nd           | Web:      www.OpenFOAM.org                      |
|    \\/     M anipulation  |                                                 |
\*---------------------------------------------------------------------------*/
FoamFile
{
    version     2.0;
    format      ascii;
    class       volScalarField;
    location    "284";
    object      k;
}
// * * * * * * * * * * * * * * * * * * * * * * * * * * * * * * * * * * * * * //

dimensions      [0 2 -2 0 0 0 0];

internalField   nonuniform List<scalar> 
5760
(
0.369403
0.363956
0.359375
0.353725
0.349484
0.344045
0.340705
0.336279
0.334173
0.33143
0.33052
0.329592
0.329942
0.330316
0.332095
0.333129
0.337191
0.335597
0.395889
0.428003
0.429193
0.427325
0.425313
0.426421
0.430054
0.435804
0.447506
0.456024
0.472869
0.482981
0.503133
0.513959
0.535291
0.545927
0.569176
0.576813
0.375177
0.389038
0.398638
0.402759
0.402701
0.4023
0.401589
0.400857
0.401081
0.401362
0.402981
0.404039
0.407015
0.408835
0.412497
0.415627
0.419423
0.423743
0.374236
0.375111
0.376621
0.378904
0.380364
0.381138
0.381584
0.381628
0.381607
0.38149
0.381464
0.381408
0.381483
0.381569
0.381802
0.382134
0.382571
0.383304
0.37433
0.373381
0.372688
0.372377
0.372287
0.372223
0.372163
0.372044
0.371872
0.371665
0.371418
0.371182
0.370902
0.370686
0.370397
0.370227
0.369944
0.369964
0.374402
0.37327
0.372213
0.371271
0.37044
0.369718
0.36906
0.368486
0.367925
0.367438
0.366928
0.366502
0.36602
0.365649
0.36518
0.364869
0.364401
0.364161
0.37441
0.373272
0.37218
0.371152
0.370169
0.369261
0.368391
0.367599
0.366829
0.366136
0.365449
0.36484
0.364219
0.363681
0.363114
0.362639
0.362114
0.361697
0.374411
0.373271
0.372177
0.371141
0.370145
0.369204
0.368298
0.367447
0.366625
0.365856
0.365111
0.364417
0.36374
0.363113
0.362498
0.361932
0.36137
0.360859
0.374412
0.37327
0.372177
0.371138
0.370142
0.369196
0.368288
0.367425
0.366598
0.365811
0.365056
0.364339
0.36365
0.362997
0.362368
0.361772
0.361197
0.360653
0.374412
0.373269
0.372176
0.371135
0.37014
0.369192
0.368285
0.367419
0.366592
0.365801
0.365045
0.364324
0.363633
0.362973
0.362341
0.361737
0.361158
0.360606
0.374412
0.373268
0.372176
0.371133
0.370139
0.369189
0.368282
0.367415
0.366587
0.365796
0.36504
0.364316
0.363625
0.362964
0.362331
0.361726
0.361146
0.360592
0.374412
0.373268
0.372175
0.371132
0.370137
0.369187
0.368279
0.367412
0.366584
0.365792
0.365035
0.364312
0.36362
0.362958
0.362325
0.361719
0.36114
0.360585
0.374412
0.373267
0.372175
0.371132
0.370136
0.369186
0.368278
0.367411
0.366582
0.36579
0.365033
0.36431
0.363617
0.362955
0.362322
0.361716
0.361136
0.36058
0.374412
0.373267
0.372175
0.371132
0.370136
0.369185
0.368277
0.36741
0.366582
0.365791
0.365035
0.364312
0.363622
0.362961
0.362329
0.361725
0.361146
0.360593
0.374413
0.373267
0.372175
0.371132
0.370138
0.369189
0.368283
0.367418
0.366592
0.365802
0.365049
0.364327
0.363639
0.36298
0.362351
0.361747
0.361172
0.360619
0.374412
0.373269
0.372181
0.371147
0.370183
0.369272
0.368416
0.367597
0.366822
0.366074
0.365365
0.364679
0.364029
0.363398
0.362802
0.362221
0.361677
0.361142
0.374403
0.373288
0.372388
0.371683
0.371042
0.370394
0.369765
0.36911
0.368481
0.367835
0.367227
0.366605
0.366032
0.365446
0.364915
0.364367
0.363884
0.363375
0.374485
0.375103
0.376414
0.377439
0.377398
0.377146
0.376567
0.375755
0.374959
0.374095
0.373367
0.372582
0.37199
0.37134
0.370901
0.370389
0.370101
0.369714
0.378164
0.387262
0.388187
0.387323
0.385401
0.38309
0.381452
0.380233
0.379875
0.380061
0.380651
0.381519
0.383187
0.384673
0.386948
0.38884
0.391554
0.393755
0.37226
0.367942
0.364359
0.360814
0.357741
0.354517
0.351739
0.348822
0.346392
0.343835
0.341799
0.339597
0.337928
0.336084
0.334751
0.333234
0.332197
0.330971
0.0255655
0.0389293
0.0522939
0.0646614
0.0769484
0.0900423
0.102568
0.111599
0.112075
0.12478
0.108157
0.125035
0.0939251
0.111566
0.139493
0.16565
0.19327
0.225742
0.261692
0.300758
0.342211
0.385858
0.431364
0.478583
0.527398
0.577773
0.629702
0.683214
0.738355
0.795178
0.853736
0.914074
0.976224
1.04021
1.10602
1.17365
1.24306
1.31418
1.38693
1.46122
1.53691
1.61387
1.69192
1.77091
1.85062
1.93085
2.01136
2.09193
2.17228
2.25215
2.33123
2.40918
2.48561
2.5601
2.63219
2.7016
2.76897
2.83381
2.89586
2.95495
3.01082
3.06325
3.11202
3.15691
3.19774
3.23432
3.26652
3.29418
3.31723
3.33559
3.34928
3.35831
3.36267
3.36186
3.35525
3.34525
3.33237
3.3138
3.29114
3.26448
3.23407
3.20015
3.16299
3.12282
3.07994
3.03459
2.98708
2.93768
2.88671
2.83444
2.78119
2.72723
2.67304
2.62078
2.59028
2.56568
2.5428
2.5156
2.49313
2.38895
0.0512101
0.0697018
0.0861713
0.100839
0.11553
0.131011
0.147497
0.164807
0.184834
0.203183
0.217847
0.252932
0.274491
0.316096
0.366646
0.413095
0.463558
0.519201
0.579501
0.644212
0.712912
0.785489
0.861722
0.941504
1.02473
1.11135
1.20136
1.29476
1.39161
1.49199
1.59598
1.70366
1.81513
1.93044
2.04964
2.17275
2.29976
2.43063
2.56527
2.70357
2.84537
2.99047
3.13866
3.28966
3.44316
3.59883
3.75629
3.91514
4.07492
4.23516
4.39534
4.55491
4.71323
4.86958
5.02309
5.17264
5.31686
5.45731
5.59366
5.72545
5.85217
5.97333
6.08843
6.19701
6.29862
6.39285
6.4793
6.55764
6.62758
6.6889
6.74147
6.78526
6.82034
6.84573
6.85945
6.86559
6.86658
6.85667
6.83802
6.8111
6.77632
6.73408
6.68484
6.62901
6.56711
6.49961
6.42708
6.35004
6.26908
6.18475
6.09766
6.00838
5.91757
5.82626
5.73904
5.65316
5.56803
5.48179
5.3973
5.22323
0.0790928
0.101669
0.121278
0.13968
0.159156
0.181046
0.206258
0.235665
0.269598
0.304318
0.342867
0.388014
0.434119
0.486901
0.543462
0.605101
0.672246
0.745127
0.823819
0.908091
0.997866
1.09272
1.19239
1.29665
1.40531
1.51825
1.63543
1.75684
1.88253
2.01255
2.14699
2.28592
2.42943
2.57757
2.73036
2.88781
3.0499
3.21654
3.38764
3.56304
3.74254
3.9259
4.11285
4.30305
4.49614
4.69171
4.88929
5.08839
5.28847
5.48896
5.68925
5.88867
6.08656
6.28219
6.47485
6.66386
6.84873
7.0291
7.20426
7.37356
7.53635
7.69196
7.83976
7.97915
8.10954
8.23039
8.3412
8.44153
8.531
8.60931
8.67627
8.73179
8.77584
8.80797
8.82562
8.83287
8.83227
8.81849
8.79344
8.7577
8.71179
8.65623
8.59159
8.51846
8.43747
8.34925
8.25452
8.15396
8.04831
7.93829
7.82468
7.70822
7.58974
7.47035
7.35301
7.23689
7.1216
7.0077
6.8946
6.71586
0.106593
0.134531
0.158537
0.181536
0.206183
0.234216
0.266743
0.304279
0.346381
0.391485
0.440017
0.492698
0.548846
0.609878
0.67624
0.749029
0.828388
0.91444
1.00711
1.10612
1.2111
1.32176
1.43782
1.55903
1.68523
1.8163
1.95223
2.09303
2.23875
2.38949
2.54534
2.7064
2.87276
3.04449
3.22162
3.40418
3.59213
3.78542
3.98393
4.18749
4.39591
4.60891
4.82618
5.04735
5.27199
5.49964
5.72976
5.96177
6.19506
6.42895
6.66274
6.89571
7.1271
7.35616
7.58213
7.80427
8.02189
8.23419
8.44034
8.63956
8.83103
9.01397
9.18764
9.35131
9.50429
9.64592
9.77563
9.89287
9.9972
10.0883
10.1658
10.2297
10.2799
10.316
10.3356
10.3429
10.3395
10.3213
10.2898
10.2456
10.1894
10.1218
10.0434
9.95505
9.85738
9.75121
9.63736
9.51664
9.38993
9.25808
9.12199
8.98256
8.84075
8.69776
8.55583
8.41518
8.27578
8.13975
8.00557
7.82384
0.133492
0.167261
0.19682
0.224829
0.254341
0.287344
0.324968
0.36753
0.414573
0.465257
0.519476
0.577662
0.640289
0.708389
0.782911
0.86452
0.953302
1.04925
1.15219
1.26183
1.37788
1.50006
1.62812
1.76188
1.90121
2.04604
2.19638
2.35226
2.51377
2.68102
2.85414
3.03325
3.21847
3.40987
3.60753
3.81149
4.02173
4.23819
4.46079
4.68935
4.92365
5.16341
5.40828
5.65785
5.91164
6.16911
6.42965
6.69259
6.95723
7.2228
7.48849
7.75347
8.01687
8.27783
8.53545
8.78884
9.03708
9.2792
9.51426
9.74134
9.95949
10.1678
10.3655
10.5516
10.7254
10.8862
11.0332
11.1658
11.2836
11.3862
11.4731
11.5443
11.5997
11.639
11.6599
11.6668
11.6602
11.6373
11.5991
11.5465
11.4801
11.4007
11.309
11.2058
11.0921
10.9688
10.8366
10.6967
10.55
10.3974
10.2401
10.0789
9.91504
9.74978
9.58499
9.42157
9.25999
9.10336
8.95039
8.76208
0.158117
0.198344
0.234014
0.26705
0.300768
0.337426
0.378292
0.423771
0.473644
0.527513
0.585378
0.647751
0.715397
0.78923
0.870051
0.958282
1.05398
1.15707
1.26738
1.38469
1.50876
1.6394
1.77643
1.91973
2.06923
2.22492
2.38683
2.55505
2.72969
2.91089
3.09881
3.29358
3.49536
3.70427
3.9204
4.14382
4.37453
4.61251
4.85766
5.10982
5.36876
5.63418
5.9057
6.18285
6.46508
6.75179
7.04229
7.3358
7.63152
7.92855
8.22597
8.5228
8.81806
9.11072
9.3997
9.68394
9.96234
10.2338
10.4973
10.7517
10.996
11.2292
11.4503
11.6583
11.8524
12.0316
12.1954
12.3429
12.4736
12.587
12.6828
12.7608
12.8209
12.8629
12.8846
12.8907
12.8807
12.8527
12.8076
12.7463
12.6696
12.5783
12.4732
12.3553
12.2256
12.0851
11.9348
11.7759
11.6094
11.4364
11.2581
11.0755
10.89
10.7029
10.5158
10.3303
10.1472
9.97035
9.79905
9.60063
0.177806
0.225166
0.267698
0.305715
0.342983
0.382262
0.425131
0.472259
0.523754
0.579593
0.639996
0.705538
0.776977
0.855073
0.940416
1.0333
1.13377
1.24176
1.35715
1.47981
1.6096
1.74642
1.89016
2.04078
2.19829
2.36271
2.53415
2.71272
2.89858
3.0919
3.29287
3.50168
3.71851
3.94351
4.17683
4.41855
4.66872
4.92732
5.19428
5.46943
5.75253
6.04325
6.34115
6.64573
6.95637
7.27236
7.59291
7.91715
8.24414
8.57285
8.90222
9.23112
9.55841
9.88287
10.2033
10.5184
10.8269
11.1277
11.4195
11.7011
11.9713
12.2291
12.4733
12.7029
12.9168
13.1143
13.2943
13.4563
13.5995
13.7234
13.8276
13.9119
13.9762
14.0204
14.0427
14.0476
14.0339
14.0005
13.9482
13.878
13.7907
13.6872
13.5686
13.4358
13.2901
13.1324
12.964
12.786
12.5998
12.4064
12.2072
12.0035
11.7964
11.5875
11.3785
11.1711
10.9668
10.7698
10.5799
10.3689
0.187862
0.246402
0.296937
0.339447
0.379475
0.420601
0.464732
0.512813
0.565268
0.622373
0.68452
0.752287
0.826338
0.907275
0.995542
1.09137
1.19482
1.30589
1.42454
1.55073
1.68442
1.8256
1.97427
2.13046
2.29425
2.46574
2.64508
2.83245
3.02805
3.23209
3.44483
3.6665
3.89731
4.13748
4.38716
4.6465
4.91556
5.19434
5.48279
5.78072
6.08787
6.40388
6.72825
7.06041
7.39965
7.74516
8.09604
8.45128
8.8098
9.17044
9.53197
9.8931
10.2525
10.6088
10.9606
11.3065
11.645
11.9748
12.2947
12.6031
12.8989
13.1808
13.4477
13.6982
13.9315
14.1465
14.3424
14.5181
14.6732
14.807
14.9191
15.0092
15.0772
15.1231
15.1456
15.1487
15.1312
15.092
15.0322
14.9528
14.8547
14.739
14.6068
14.4591
14.2972
14.1224
13.9359
13.739
13.5331
13.3196
13.0997
12.8748
12.6464
12.4159
12.1853
11.9564
11.7309
11.5139
11.305
11.0796
0.172312
0.263881
0.32277
0.368184
0.40981
0.452079
0.496974
0.545583
0.598564
0.656404
0.719594
0.788686
0.864239
0.94674
1.03655
1.1339
1.23887
1.35155
1.47198
1.60023
1.73635
1.88044
2.0326
2.19295
2.36165
2.53887
2.72483
2.91979
3.12401
3.33777
3.56136
3.79509
4.03921
4.29397
4.55959
4.83622
5.12396
5.42283
5.73275
6.05354
6.3849
6.7264
7.07749
7.43748
7.80557
8.18084
8.56224
8.94864
9.33879
9.73136
10.125
10.5182
10.9094
11.2972
11.6799
12.0561
12.424
12.7822
13.1293
13.4638
13.7843
14.0894
14.3779
14.6485
14.9002
15.1317
15.3423
15.531
15.697
15.8398
15.9589
16.054
16.1251
16.1719
16.1942
16.195
16.1733
16.128
16.0605
15.9717
15.8628
15.7349
15.589
15.4265
15.2487
15.0569
14.8525
14.637
14.4118
14.1784
13.9381
13.6926
13.4432
13.1916
12.9397
12.6897
12.4435
12.2065
11.9783
11.7374
0.175614
0.278313
0.342554
0.390382
0.433467
0.476626
0.521994
0.570832
0.623982
0.682071
0.745649
0.815249
0.891355
0.974373
1.06462
1.16231
1.26762
1.38071
1.50172
1.63083
1.7682
1.91404
2.06856
2.23197
2.40452
2.58647
2.77815
2.97987
3.19198
3.41483
3.64878
3.89419
4.15136
4.42059
4.70211
4.99612
5.30271
5.6219
5.95361
6.2976
6.65351
7.02085
7.39895
7.78703
8.18415
8.58926
9.00115
9.41853
9.84
10.2641
10.6892
11.1137
11.5359
11.9542
12.3668
12.7719
13.1679
13.5531
13.926
14.285
14.6286
14.9553
15.2638
15.5529
15.8213
16.0679
16.2917
16.4918
16.6674
16.818
16.943
17.0421
17.1151
17.1621
17.1834
17.1813
17.1553
17.1035
17.0279
16.9298
16.8101
16.67
16.5107
16.3337
16.1403
15.9321
15.7104
15.4768
15.2329
14.9803
14.7204
14.4548
14.1852
13.9132
13.6407
13.3703
13.1039
12.8472
12.5997
12.343
0.200082
0.28971
0.355576
0.405466
0.450199
0.494239
0.539947
0.588806
0.641828
0.699768
0.763212
0.83265
0.908498
0.991118
1.08083
1.1779
1.28258
1.39512
1.51579
1.64486
1.78262
1.92939
2.0855
2.25129
2.42708
2.61321
2.81012
3.01824
3.238
3.46984
3.7142
3.97147
4.242
4.5261
4.82402
5.13596
5.46203
5.8022
6.15632
6.52412
6.90512
7.29872
7.70413
8.12042
8.54652
8.98119
9.42309
9.87075
10.3226
10.777
11.2323
11.6865
12.138
12.5849
13.0252
13.4572
13.8789
14.2888
14.6851
15.0661
15.4303
15.7762
16.1023
16.4074
16.6901
16.9495
17.1844
17.3939
17.5773
17.734
17.8633
17.9649
18.0388
18.0851
18.1042
18.0987
18.0681
18.0093
17.9257
17.8182
17.6879
17.536
17.3639
17.173
16.9647
16.7407
16.5026
16.2519
15.9903
15.7194
15.4409
15.1564
14.8676
14.5762
14.2843
13.9944
13.7086
13.433
13.1664
12.8943
0.223083
0.301511
0.363574
0.41451
0.460448
0.505165
0.551078
0.599825
0.652532
0.709999
0.772822
0.841484
0.916377
0.997837
1.08625
1.18195
1.28529
1.39663
1.51634
1.64483
1.78253
1.92986
2.08733
2.25537
2.4344
2.62474
2.82701
3.04181
3.26969
3.51118
3.76676
4.03685
4.3218
4.62192
4.93745
5.26855
5.61528
5.97756
6.35512
6.74757
7.15431
7.57457
8.0074
8.45171
8.90625
9.36962
9.84031
10.3167
10.7971
11.2796
11.7625
12.2438
12.7216
13.1938
13.6586
14.114
14.5581
14.989
15.4051
15.8045
16.1858
16.5473
16.8876
17.2054
17.4994
17.7685
18.0117
18.228
18.4167
18.5772
18.7089
18.8115
18.8848
18.929
18.9447
18.9356
18.8996
18.8338
18.7422
18.6255
18.485
18.322
18.1377
17.9338
17.7117
17.4732
17.2198
16.9533
16.6754
16.3877
16.0921
15.7902
15.4836
15.1744
14.8644
14.5565
14.2525
13.959
13.6742
13.3873
0.233753
0.307098
0.36696
0.418274
0.464779
0.509864
0.555848
0.604342
0.656493
0.713138
0.774919
0.842367
0.915999
0.996227
1.0833
1.17761
1.27958
1.38967
1.50838
1.63622
1.77378
1.92171
2.0806
2.25104
2.4336
2.62881
2.83749
3.06027
3.29781
3.55071
3.81947
4.10448
4.40604
4.72437
5.05966
5.41197
5.78126
6.16728
6.56964
6.98773
7.42076
7.86777
8.32763
8.79905
9.28059
9.77071
10.2677
10.77
11.2755
11.7825
12.2889
12.7929
13.2924
13.7853
14.2696
14.7435
15.2048
15.6518
16.0827
16.4957
16.8892
17.2617
17.6117
17.9379
18.2391
18.5142
18.762
18.9819
19.1729
19.3346
19.4664
19.5679
19.639
19.6798
19.6909
19.6777
19.6357
19.5629
19.4633
19.338
19.1881
19.0148
18.8195
18.6039
18.3695
18.1179
17.851
17.5705
17.2782
16.9757
16.6649
16.3475
16.0253
15.7001
15.3739
15.0497
14.7292
14.4194
14.1173
13.8172
0.23161
0.306885
0.366446
0.417602
0.464194
0.509292
0.55515
0.603327
0.654947
0.710839
0.771649
0.837899
0.910008
0.988316
1.07333
1.16562
1.26577
1.37443
1.4923
1.62019
1.75877
1.90875
2.07092
2.24608
2.4347
2.63735
2.85514
3.08888
3.33928
3.60711
3.89274
4.19647
4.5184
4.85853
5.21691
5.59343
5.98782
6.39959
6.8281
7.27249
7.73174
8.20466
8.6899
9.18603
9.69145
10.2045
10.7234
11.2464
11.7717
12.2971
12.8209
13.3411
13.8555
14.3622
14.8592
15.3446
15.8163
16.2727
16.7118
17.132
17.5317
17.9092
18.2634
18.5928
18.8962
19.1725
19.4209
19.6404
19.8303
19.9902
20.1194
20.2176
20.2848
20.3206
20.3262
20.3085
20.26
20.1802
20.0733
19.9401
19.7817
19.5995
19.3949
19.1693
18.9245
18.6621
18.3839
18.0917
17.7873
17.4725
17.149
16.8187
16.4832
16.1445
15.8046
15.4664
15.1315
14.8072
14.4896
14.1781
0.230032
0.304585
0.363959
0.414315
0.460431
0.505101
0.550454
0.597922
0.648541
0.703098
0.762282
0.826661
0.896766
0.973218
1.05668
1.14782
1.24742
1.35626
1.47528
1.60558
1.74805
1.90348
2.0725
2.25561
2.45445
2.67037
2.90395
3.15591
3.42679
3.71684
4.02641
4.35586
4.70478
5.07276
5.45956
5.86471
6.28759
6.72738
7.18311
7.65362
8.13766
8.63385
9.14072
9.6567
10.1802
10.7095
11.243
11.7787
12.3151
12.8501
13.382
13.9089
14.4288
14.9398
15.4401
15.9277
16.4009
16.8577
17.2966
17.7159
18.1139
18.4892
18.8405
19.1665
19.466
19.7381
19.9818
20.1963
20.381
20.5354
20.6589
20.7513
20.8124
20.8414
20.8407
20.8176
20.7618
20.6754
20.5616
20.4214
20.2558
20.0662
19.8538
19.6202
19.3671
19.0962
18.8092
18.5079
18.1941
17.8696
17.5362
17.1957
16.8497
16.5003
16.1492
15.7995
15.4525
15.116
14.7846
14.4637
0.221253
0.297886
0.356617
0.406569
0.452023
0.49597
0.540474
0.586908
0.636345
0.689679
0.747642
0.810921
0.880211
0.956311
1.04006
1.13247
1.23477
1.34789
1.47286
1.61027
1.76153
1.92826
2.11181
2.31365
2.53475
2.77606
3.03796
3.32088
3.62474
3.94931
4.29418
4.65877
5.04189
5.44312
5.86175
6.2969
6.74756
7.2126
7.6908
8.18088
8.68152
9.19132
9.7089
10.2328
10.7616
11.2939
11.828
12.3625
12.8957
13.4262
13.9521
14.4719
14.9838
15.486
15.9769
16.4547
16.9177
17.3641
17.7925
18.2012
18.5886
18.9532
19.294
19.6096
19.899
20.1611
20.3952
20.6004
20.7762
20.922
21.0375
21.1225
21.1759
21.1967
21.1907
21.1616
21.0994
21.0079
20.8893
20.7445
20.5744
20.3804
20.1638
19.9259
19.6684
19.393
19.1014
18.7953
18.4764
18.1465
17.8075
17.461
17.1088
16.7526
16.3943
16.0369
15.6814
15.3361
14.9938
14.6669
0.209907
0.289795
0.348782
0.397106
0.44144
0.484497
0.528167
0.573809
0.622541
0.675334
0.733129
0.796831
0.86749
0.946472
1.03476
1.13345
1.24322
1.36647
1.50493
1.66072
1.83562
2.03086
2.24751
2.48674
2.74905
3.03416
3.34139
3.67058
4.02018
4.38928
4.77614
5.17813
5.59497
6.02606
6.47037
6.92683
7.39434
7.87181
8.35813
8.85219
9.35291
9.85922
10.3701
10.8843
11.401
11.9188
12.4366
12.9533
13.4675
13.978
14.4833
14.982
15.4725
15.9533
16.423
16.8799
17.3222
17.7486
18.1576
18.5474
18.9166
19.2637
19.587
19.8856
20.159
20.4059
20.6258
20.8178
20.9815
21.1164
21.2221
21.2986
21.3447
21.3583
21.3484
21.3148
21.2484
21.1543
21.0336
20.8872
20.7161
20.5213
20.3042
20.0661
19.8085
19.533
19.2412
18.935
18.616
18.286
17.9466
17.5993
17.2458
16.8878
16.5271
16.1665
15.8067
15.4566
15.1069
14.7777
0.202749
0.281199
0.339703
0.386551
0.429856
0.472192
0.51527
0.560572
0.609467
0.66321
0.723349
0.791291
0.868405
0.955344
1.05514
1.17056
1.30489
1.46024
1.63846
1.84213
2.07294
2.33019
2.61247
2.91904
3.249
3.5993
3.96714
4.35257
4.75148
5.16079
5.57919
6.00629
6.44171
6.8848
7.3349
7.79133
8.25341
8.72051
9.19198
9.6672
10.1456
10.6265
11.1095
11.5939
12.0789
12.5639
13.048
13.5304
14.0101
14.4859
14.9568
15.4215
15.8787
16.3268
16.7649
17.1912
17.6039
18.0011
18.3817
18.7442
19.0874
19.4106
19.7126
19.9915
20.2465
20.4764
20.6808
20.8586
21.0096
21.1333
21.2294
21.2976
21.336
21.3426
21.3294
21.292
21.2231
21.1281
21.0075
20.8621
20.6927
20.5004
20.2861
20.0513
19.7974
19.5257
19.238
18.9357
18.6206
18.2942
17.9582
17.6141
17.2633
16.9075
16.5482
16.1883
15.828
15.4766
15.123
14.7942
0.200355
0.27238
0.328848
0.375066
0.41784
0.459848
0.503099
0.549417
0.60123
0.660658
0.728575
0.808079
0.904528
1.0225
1.16607
1.34044
1.55077
1.79686
2.07538
2.38605
2.72738
3.09159
3.47197
3.86577
4.27158
4.68331
5.09819
5.51183
5.92653
6.3426
6.75998
7.17847
7.59828
8.01962
8.44264
8.86734
9.29369
9.72162
10.1511
10.5819
11.014
11.4473
11.8816
12.3168
12.7524
13.1879
13.623
14.057
14.4891
14.918
15.3434
15.7639
16.1781
16.5842
16.981
17.3675
17.7427
18.1058
18.4544
18.7868
19.1017
19.3978
19.6742
19.929
20.1619
20.3715
20.5574
20.7187
20.8552
20.9661
21.0514
21.1109
21.1413
21.1419
21.1262
21.0857
21.0161
20.922
20.8036
20.6616
20.4966
20.3095
20.1013
19.8732
19.6263
19.3622
19.0822
18.7879
18.4807
18.1623
17.834
17.4972
17.1533
16.8038
16.45
16.0945
15.7373
15.3879
15.0334
14.7076
0.194594
0.26376
0.316909
0.362816
0.405816
0.448781
0.495387
0.548585
0.610012
0.688258
0.789942
0.924887
1.11007
1.3508
1.64652
1.99573
2.3956
2.82838
3.27502
3.73209
4.19612
4.65256
5.09693
5.52464
5.93641
6.3372
6.72992
7.11478
7.49297
7.86581
8.23458
8.6004
8.9643
9.32713
9.68954
10.052
10.4148
10.7783
11.1427
11.5082
11.8751
12.2436
12.6138
12.9857
13.3591
13.7335
14.109
14.4849
14.8605
15.2345
15.6057
15.9734
16.3369
16.6962
17.0489
17.3935
17.7286
18.0527
18.3645
18.6622
18.9445
19.2102
19.4583
19.6869
19.8957
20.0834
20.2496
20.3933
20.5144
20.6122
20.6866
20.7375
20.7597
20.7562
20.7379
20.6955
20.627
20.5354
20.4212
20.2847
20.1265
19.9472
19.7478
19.5293
19.2927
19.0394
18.7706
18.4878
18.1923
17.8855
17.5687
17.2431
16.9099
16.5704
16.2258
15.8783
15.5276
15.1834
14.8312
14.5103
0.19094
0.251707
0.300613
0.349639
0.396369
0.448118
0.508476
0.590467
0.711766
0.912907
1.20067
1.58328
2.0878
2.66176
3.26648
3.87719
4.48401
5.05709
5.58504
6.06622
6.50199
6.90501
7.2846
7.6421
7.98114
8.30439
8.6149
8.91551
9.20866
9.49637
9.78043
10.0623
10.3432
10.624
10.9052
11.1874
11.471
11.7562
12.0435
12.333
12.6254
12.921
13.2199
13.5222
13.8278
14.1359
14.4463
14.7587
15.0723
15.3877
15.7037
16.0186
16.3314
16.6409
16.9459
17.2451
17.5369
17.8201
18.0933
18.3546
18.6029
18.8368
19.0555
19.2571
19.4411
19.6064
19.7524
19.8784
19.9841
20.0686
20.1323
20.175
20.1892
20.1829
20.1628
20.1197
20.0536
19.9663
19.858
19.7291
19.5799
19.4109
19.2229
19.0167
18.7933
18.5539
18.2996
18.0316
17.7511
17.4594
17.1576
16.8468
16.5278
16.2018
15.8698
15.5336
15.1929
14.8567
14.5101
14.1953
0.18883
0.23472
0.271051
0.343183
0.410565
0.509481
0.700714
1.03508
1.53413
2.30222
3.1524
4.02247
4.93546
5.75453
6.47407
7.07126
7.567
7.99717
8.37966
8.71954
9.02106
9.29143
9.53968
9.7682
9.9841
10.1891
10.3855
10.5767
10.7652
10.9526
11.1403
11.3295
11.5208
11.7147
11.9114
12.111
12.3139
12.5202
12.7303
12.9444
13.1629
13.3861
13.6141
13.847
14.0847
14.3285
14.577
14.8297
15.0856
15.3442
15.6047
15.8661
16.1274
16.3876
16.6453
16.8993
17.1483
17.3908
17.6256
17.8509
18.0654
18.2677
18.457
18.6316
18.7909
18.9339
19.06
19.1685
19.2593
19.3312
19.3849
19.42
19.427
19.4189
19.3983
19.3558
19.2935
19.2121
19.1116
18.9922
18.8541
18.6977
18.5235
18.3323
18.1249
17.9023
17.6653
17.4153
17.153
16.8797
16.5962
16.3033
16.002
15.6928
15.3767
15.055
14.7275
14.4019
14.0644
13.7562
0.184485
0.184806
0.146581
0.444894
0.742782
1.36119
2.44618
3.75119
5.05087
6.46403
7.55904
8.42112
9.06145
9.54284
9.94776
10.2641
10.5157
10.7228
10.8956
11.0399
11.1636
11.272
11.3715
11.4629
11.5519
11.6385
11.724
11.8122
11.9042
12.0005
12.102
12.2089
12.3211
12.4384
12.5605
12.6872
12.8186
12.9551
13.0969
13.2451
13.3997
13.5605
13.7278
13.9015
14.0815
14.2675
14.4594
14.6566
14.8586
15.0647
15.2741
15.486
15.6994
15.9133
16.1267
16.3381
16.5462
16.7499
16.9479
17.1385
17.3204
17.4925
17.6535
17.8022
17.9379
18.0596
18.1669
18.2588
18.3356
18.3958
18.4408
18.4686
18.4703
18.4613
18.4412
18.4011
18.3441
18.2703
18.1794
18.0714
17.9465
17.8048
17.6468
17.4731
17.2842
17.0811
16.8644
16.6351
16.394
16.1421
15.88
15.6084
15.3278
15.0386
14.7417
14.4374
14.1264
13.8136
13.4892
13.1873
0.207083
0.377808
0.803228
2.12056
3.92961
6.16032
8.4011
9.95255
10.9003
11.5796
11.9455
12.1912
12.3519
12.4366
12.4856
12.5118
12.5135
12.5067
12.4926
12.4693
12.4462
12.4253
12.4096
12.3966
12.3933
12.3924
12.3977
12.4133
12.4377
12.4703
12.5118
12.5613
12.618
12.681
12.7498
12.8241
12.904
12.9897
13.0814
13.1794
13.2842
13.3958
13.5143
13.6397
13.7719
13.9106
14.0555
14.2061
14.3621
14.5228
14.6876
14.8559
15.0268
15.1993
15.3725
15.5453
15.7163
15.8845
16.0486
16.2072
16.3591
16.5029
16.6378
16.7624
16.8762
16.9782
17.0681
17.1449
17.2092
17.2589
17.2967
17.3173
17.3164
17.3071
17.2891
17.2531
17.2031
17.1385
17.0589
16.9643
16.8545
16.7297
16.5901
16.4363
16.2686
16.0876
15.8938
15.6882
15.4712
15.2436
15.0059
14.7584
14.5017
14.2354
13.9608
13.6767
13.3854
13.0876
12.7805
12.4839
0.387402
3.29399
6.42987
9.76491
11.9089
13.2092
13.8928
13.8877
13.8356
13.7494
13.6355
13.4946
13.3664
13.2413
13.1245
13.021
12.9197
12.8214
12.7282
12.64
12.5598
12.4892
12.4302
12.3783
12.3355
12.3031
12.2795
12.2692
12.268
12.2747
12.2916
12.3162
12.347
12.3828
12.4234
12.4686
12.5186
12.5739
12.6347
12.7013
12.774
12.853
12.9383
13.0299
13.1277
13.2315
13.3409
13.4557
13.5754
13.6998
13.8284
13.9605
14.0957
14.233
14.3718
14.511
14.6495
14.7863
14.9203
15.0504
15.1752
15.2937
15.405
15.5079
15.6021
15.6863
15.7609
15.8242
15.8777
15.9184
15.9506
15.9658
15.9638
15.9548
15.9406
15.9102
15.8691
15.8154
15.749
15.6697
15.5771
15.4712
15.3523
15.2208
15.0766
14.9203
14.7521
14.5728
14.3826
14.1823
13.9718
13.7513
13.5213
13.2809
13.0317
12.7704
12.5022
12.2209
11.936
11.6427
0.939156
2.62498
4.45017
5.94249
7.1516
8.05888
8.83143
9.41184
9.86154
10.2339
10.5106
10.7168
10.8748
10.9887
11.0642
11.1207
11.1383
11.1318
11.1186
11.1042
11.0921
11.0845
11.082
11.0786
11.0786
11.087
11.1012
11.1225
11.1488
11.1791
11.2136
11.2505
11.2881
11.326
11.3645
11.4042
11.446
11.4904
11.5382
11.5894
11.6445
11.7036
11.7668
11.834
11.9053
11.9804
12.0592
12.1416
12.2274
12.3165
12.4087
12.5037
12.6012
12.7006
12.8015
12.9031
13.0047
13.1054
13.2043
13.3004
13.3928
13.4805
13.5627
13.6387
13.7081
13.7698
13.8245
13.8703
13.9095
13.9379
13.9623
13.9697
13.9657
13.9565
13.9459
13.9211
13.892
13.852
13.8024
13.7426
13.6724
13.5915
13.4999
13.3982
13.2856
13.1626
13.0291
12.8857
12.7322
12.5691
12.3962
12.2132
12.0206
11.8163
11.6028
11.3737
11.1392
10.8807
10.6309
10.3372
0.615578
0.661704
0.757525
0.867263
1.0252
1.19832
1.40902
1.64577
1.91472
2.21476
2.54839
2.89766
3.27447
3.65567
4.0492
4.43347
4.8203
5.20396
5.57455
5.93023
6.26279
6.57342
6.85807
7.11798
7.34933
7.55939
7.74808
7.9199
8.07802
8.22502
8.36034
8.47927
8.58377
8.67842
8.76668
8.85053
8.93151
9.0102
9.0873
9.16265
9.23683
9.30934
9.3807
9.45099
9.5201
9.58821
9.65557
9.72235
9.78884
9.85519
9.92183
9.98878
10.0562
10.1238
10.1917
10.2594
10.3266
10.393
10.4578
10.5201
10.5796
10.6356
10.6879
10.7358
10.7795
10.818
10.8526
10.881
10.9065
10.9239
10.9418
10.9457
10.9436
10.9389
10.9351
10.9201
10.9097
10.8921
10.8681
10.8377
10.8004
10.7556
10.7036
10.645
10.5779
10.5027
10.4185
10.3266
10.2254
10.116
9.99693
9.86826
9.7301
9.57882
9.41847
9.23742
9.05464
8.83129
8.63977
8.3413
0.427782
0.430517
0.436471
0.439863
0.449545
0.453881
0.467022
0.475684
0.49946
0.510008
0.541577
0.562653
0.60618
0.640801
0.697576
0.768352
0.851532
0.951812
1.06617
1.1997
1.34726
1.51302
1.69208
1.88648
2.09126
2.30557
2.52747
2.7537
2.9842
3.213
3.44095
3.67119
3.90252
4.12999
4.35116
4.56303
4.76462
4.95432
5.13216
5.29748
5.45139
5.5932
5.72543
5.84685
5.95905
6.06288
6.15913
6.24847
6.3317
6.40949
6.48315
6.55244
6.61821
6.68076
6.74066
6.7977
6.85244
6.90449
6.95235
6.99652
7.03762
7.0756
7.11112
7.14363
7.17426
7.20168
7.22805
7.25092
7.27393
7.29285
7.31297
7.32988
7.34333
7.35572
7.36741
7.37898
7.39144
7.40524
7.41717
7.42762
7.43406
7.43557
7.43448
7.43118
7.41993
7.40267
7.3777
7.34742
7.3081
7.26263
7.20685
7.14323
7.0698
6.98204
6.88489
6.76352
6.64237
6.46943
6.34216
6.05091
0.383501
0.383497
0.383632
0.383554
0.38363
0.383488
0.383547
0.383518
0.383976
0.384072
0.384513
0.384997
0.385911
0.38692
0.388591
0.389879
0.395528
0.398496
0.407562
0.412618
0.42584
0.434446
0.453089
0.466861
0.491241
0.51273
0.543139
0.577752
0.619193
0.66533
0.720401
0.782878
0.853417
0.931517
1.01703
1.109
1.20656
1.30819
1.41294
1.51937
1.62631
1.73221
1.83631
1.93719
2.03392
2.12641
2.21371
2.29611
2.37305
2.44548
2.51238
2.57499
2.6335
2.68813
2.73864
2.78553
2.82911
2.86998
2.91052
2.95002
2.98915
3.02697
3.06479
3.10123
3.13831
3.17391
3.21099
3.24712
3.28531
3.32315
3.36327
3.40457
3.44795
3.4936
3.54164
3.59243
3.64431
3.69931
3.75417
3.81114
3.86582
3.9209
3.97212
4.02389
4.06814
4.11165
4.14645
4.17971
4.20284
4.22353
4.23295
4.24187
4.23522
4.21442
4.1828
4.12969
4.07228
3.96863
3.89609
3.64741
0.36951
0.369004
0.368504
0.367984
0.367453
0.366892
0.366311
0.365706
0.365085
0.364436
0.363759
0.363073
0.362366
0.361669
0.360962
0.360248
0.359657
0.359095
0.358704
0.358331
0.358188
0.358166
0.358422
0.35877
0.359447
0.359887
0.362022
0.362747
0.365561
0.367207
0.371251
0.374385
0.380171
0.385506
0.394068
0.400684
0.412666
0.41905
0.430934
0.441678
0.456137
0.471767
0.488804
0.506821
0.525804
0.545425
0.565392
0.585527
0.605991
0.626605
0.64702
0.667227
0.687034
0.706309
0.724635
0.742328
0.75926
0.775338
0.792819
0.806255
0.82483
0.83711
0.856563
0.868514
0.888686
0.900461
0.921242
0.934001
0.955764
0.970232
0.993491
1.0098
1.03357
1.05792
1.08687
1.11781
1.14975
1.18399
1.2188
1.25627
1.29352
1.33304
1.37142
1.41107
1.44911
1.48827
1.52461
1.56227
1.59421
1.62844
1.65505
1.68272
1.70357
1.71772
1.72597
1.72246
1.70949
1.67094
1.64722
1.49793
0.36364
0.363059
0.362468
0.361866
0.361254
0.36063
0.359993
0.359343
0.358677
0.357999
0.357301
0.356591
0.355861
0.355121
0.354361
0.353592
0.35281
0.352025
0.351235
0.350447
0.349656
0.34888
0.348118
0.347369
0.346642
0.345914
0.34524
0.344561
0.343971
0.343379
0.342908
0.342458
0.342137
0.341913
0.341708
0.34167
0.341866
0.341938
0.34213
0.342369
0.342774
0.343136
0.344054
0.344688
0.346319
0.347044
0.348916
0.349681
0.351726
0.352579
0.354766
0.35569
0.357937
0.358923
0.361155
0.362116
0.364295
0.365285
0.367176
0.368364
0.369629
0.371002
0.372446
0.374012
0.375628
0.377406
0.379275
0.381329
0.383493
0.385967
0.388508
0.391379
0.394423
0.398173
0.40285
0.409737
0.414702
0.422544
0.428332
0.437155
0.444103
0.453776
0.461915
0.472372
0.480787
0.491527
0.50193
0.512821
0.523646
0.534642
0.545312
0.555777
0.565316
0.57415
0.5812
0.587027
0.587689
0.58413
0.569721
0.53322
0.361149
0.360542
0.359925
0.359299
0.358663
0.358018
0.357362
0.356698
0.356024
0.355341
0.354647
0.353943
0.353228
0.352504
0.351768
0.351023
0.350266
0.3495
0.348723
0.347937
0.347142
0.346339
0.345529
0.344712
0.34389
0.343062
0.342232
0.341394
0.340562
0.339722
0.338893
0.338058
0.337236
0.336417
0.335603
0.334796
0.334004
0.333213
0.332434
0.331658
0.330904
0.330148
0.329422
0.328709
0.328035
0.327357
0.326711
0.326054
0.325427
0.324791
0.324184
0.32357
0.322978
0.322386
0.321808
0.321224
0.320644
0.320064
0.319478
0.318885
0.318295
0.317746
0.317186
0.316665
0.316123
0.315649
0.31513
0.314723
0.314223
0.313919
0.313427
0.313276
0.312762
0.312733
0.312501
0.312496
0.312568
0.312732
0.312967
0.313296
0.313702
0.314194
0.314762
0.315405
0.316021
0.316871
0.317539
0.31855
0.319467
0.320226
0.321338
0.322168
0.322863
0.323469
0.323772
0.323776
0.323823
0.321456
0.32122