/*--------------------------------*- C++ -*----------------------------------*\
| =========                 |                                                 |
| \\      /  F ield         | OpenFOAM: The Open Source CFD Toolbox           |
|  \\    /   O peration     | Version:  5.x                                   |
|   \\  /    A nd           | Web:      www.OpenFOAM.org                      |
|    \\/     M anipulation  |                                                 |
\*---------------------------------------------------------------------------*/
FoamFile
{
    version     2.0;
    format      ascii;
    class       volScalarField;
    location    "284";
    object      nut;
}
// * * * * * * * * * * * * * * * * * * * * * * * * * * * * * * * * * * * * * //

dimensions      [0 2 -1 0 0 0 0];

internalField   nonuniform List<scalar> 
5760
(
7.95957e-05
7.84188e-05
7.74463e-05
7.6222e-05
7.53087e-05
7.4142e-05
7.34148e-05
7.24675e-05
7.20122e-05
7.14171e-05
7.12303e-05
7.10217e-05
7.1124e-05
7.11014e-05
7.16183e-05
7.16287e-05
7.30824e-05
7.09561e-05
0.000603711
0.000459049
0.000385851
0.000347115
0.000319183
0.000301095
0.00028613
0.000276225
0.000271277
0.000263731
0.00026473
0.000257091
0.000262357
0.000254172
0.00026113
0.000252024
0.00026394
0.00024273
0.000806185
0.000781875
0.000711104
0.000654938
0.000608242
0.000571615
0.000541041
0.000514572
0.000493418
0.000472309
0.000458857
0.000439204
0.00043165
0.000413532
0.000408372
0.000393883
0.000387247
0.000372452
0.00084735
0.000845907
0.000832801
0.000812777
0.000791537
0.000766809
0.000746057
0.000723146
0.000705509
0.000684706
0.000670992
0.000651783
0.000640868
0.000623517
0.000614174
0.000599046
0.000590142
0.000576248
0.000851218
0.000851813
0.000850087
0.000847728
0.000843766
0.000837666
0.000831671
0.000822446
0.000815273
0.000804971
0.00079772
0.000787174
0.000780178
0.000770005
0.000763313
0.000753701
0.000747131
0.000737491
0.000851849
0.000851603
0.000851642
0.000851079
0.000850919
0.000849876
0.000849011
0.000847306
0.000845525
0.000843247
0.000840507
0.0008379
0.000834946
0.000831855
0.000828697
0.000825479
0.000821886
0.000818325
0.000851923
0.000851614
0.000851546
0.000851254
0.000851184
0.000850908
0.000850784
0.000850444
0.000850212
0.000849725
0.000849356
0.000848664
0.000848184
0.000847294
0.000846723
0.000845643
0.000845033
0.000843752
0.000851903
0.000851652
0.000851499
0.000851271
0.000851134
0.000850927
0.000850807
0.000850612
0.000850505
0.000850307
0.000850201
0.000849989
0.000849873
0.000849639
0.000849504
0.000849248
0.000849087
0.000848812
0.000851889
0.000851667
0.000851483
0.000851281
0.000851114
0.00085093
0.000850778
0.000850611
0.000850473
0.000850321
0.000850195
0.000850055
0.000849939
0.00084981
0.000849699
0.000849578
0.00084947
0.000849357
0.000851882
0.000851672
0.000851476
0.000851284
0.000851105
0.000850931
0.000850767
0.000850609
0.000850459
0.000850314
0.000850177
0.000850045
0.000849919
0.000849798
0.000849683
0.000849572
0.000849466
0.000849365
0.000851881
0.000851672
0.000851474
0.000851283
0.000851102
0.000850928
0.000850763
0.000850604
0.000850453
0.000850308
0.000850169
0.000850036
0.00084991
0.000849787
0.000849671
0.000849559
0.000849452
0.000849349
0.000851881
0.000851672
0.000851473
0.000851282
0.0008511
0.000850926
0.00085076
0.000850601
0.000850449
0.000850303
0.000850164
0.000850031
0.000849904
0.000849781
0.000849665
0.000849552
0.000849446
0.000849342
0.000851881
0.000851672
0.000851472
0.000851281
0.000851099
0.000850925
0.000850759
0.000850599
0.000850448
0.000850302
0.000850162
0.000850029
0.000849901
0.000849778
0.000849661
0.000849547
0.00084944
0.000849336
0.000851881
0.000851672
0.000851472
0.000851281
0.000851099
0.000850924
0.000850758
0.000850599
0.000850448
0.000850303
0.000850166
0.000850034
0.000849909
0.000849787
0.000849673
0.000849562
0.000849457
0.000849354
0.00085188
0.000851673
0.000851472
0.000851284
0.000851101
0.00085093
0.000850765
0.000850611
0.00085046
0.000850318
0.000850179
0.000850049
0.00084992
0.000849798
0.000849678
0.000849564
0.000849452
0.000849344
0.000851873
0.00085168
0.00085147
0.000851298
0.000851132
0.000850994
0.000850837
0.000850686
0.000850498
0.000850311
0.000850079
0.000849853
0.000849578
0.00084932
0.000849007
0.000848727
0.000848383
0.000848089
0.000851792
0.000851617
0.000851294
0.000851046
0.000850358
0.000849384
0.000848061
0.000846474
0.000844659
0.00084265
0.000840545
0.000838288
0.000836049
0.000833664
0.000831406
0.000828967
0.000826715
0.0008245
0.00084926
0.000846874
0.000839166
0.0008302
0.000817266
0.000805535
0.000792862
0.000780858
0.000768932
0.000758074
0.000747462
0.000737871
0.000728529
0.000720177
0.000711962
0.000704709
0.000697455
0.000691163
0.000787529
0.000710411
0.000647457
0.00060462
0.000570327
0.000542857
0.000520682
0.000503111
0.000488648
0.000477471
0.000467223
0.000459079
0.000452428
0.000446542
0.000441917
0.000437509
0.000434273
0.000430831
0.000178968
0.000176892
0.000175169
0.000173465
0.000171988
0.000170437
0.000169102
0.000167699
0.000166531
0.000165302
0.000164323
0.000163264
0.000162462
0.000161576
0.000160935
0.000160205
0.000159707
0.000159117
2.62562e-05
6.40997e-05
8.57179e-05
0.000105497
0.000124938
0.000145217
0.000164916
0.000183796
0.000215088
0.000233278
3.62248e-05
0.000234637
2.16225e-05
2.77184e-05
4.80229e-05
5.42603e-05
5.87299e-05
6.34944e-05
6.83199e-05
7.31783e-05
7.79894e-05
8.27374e-05
8.73976e-05
9.1967e-05
9.64465e-05
0.000100844
0.000105167
0.000109427
0.000113632
0.000117792
0.000121913
0.000126002
0.000130062
0.000134096
0.000138105
0.000142089
0.000146047
0.000149976
0.000153873
0.000157733
0.000161551
0.000165323
0.000169041
0.000172701
0.000176295
0.000179817
0.00018326
0.000186618
0.000189882
0.000193045
0.000196099
0.000199036
0.000201844
0.000204511
0.000207027
0.000209385
0.000211617
0.000213709
0.000215654
0.000217453
0.000219101
0.000220593
0.000221926
0.000223097
0.000224102
0.00022494
0.000225609
0.000226106
0.000226431
0.000226586
0.000226569
0.000226386
0.000226036
0.000225504
0.00022477
0.000223914
0.000222956
0.000221799
0.000220499
0.000219057
0.000217481
0.000215778
0.000213957
0.000212025
0.00020999
0.000207862
0.000205645
0.000203356
0.000200994
0.000198581
0.000196112
0.000193613
0.000191082
0.000188617
0.000186909
0.000185421
0.000183981
0.000182392
0.000180959
0.000176544
5.25772e-05
0.000129563
0.000200384
0.000249244
0.000276928
0.00029368
0.000305759
0.000312243
0.000310504
0.000283852
0.000215591
0.000271004
0.000220131
0.000246424
0.00027576
0.000289685
0.000305296
0.000324377
0.00034636
0.000371965
0.000399082
0.000427858
0.000457844
0.000488707
0.000520172
0.000552044
0.000584194
0.000616548
0.000649083
0.000681816
0.000714788
0.000748047
0.000781649
0.000815646
0.000850087
0.000885009
0.000920439
0.000956393
0.000992871
0.00102986
0.00106735
0.00110528
0.00114363
0.00118234
0.00122134
0.00126056
0.00129994
0.0013394
0.00137886
0.00141824
0.00145747
0.00149648
0.00153516
0.00157335
0.00161067
0.00164621
0.00167803
0.00170872
0.00173852
0.00176731
0.00179505
0.00182165
0.00184706
0.00187121
0.00189403
0.00191546
0.00193545
0.00195395
0.00197089
0.00198626
0.00200003
0.00201224
0.00202308
0.00203241
0.00203889
0.00204371
0.00204844
0.0020511
0.00205199
0.00205135
0.00204922
0.00204567
0.00204077
0.00203459
0.0020272
0.00201868
0.0020091
0.00199858
0.00198717
0.00197502
0.00196215
0.00194875
0.0019347
0.00191935
0.00189609
0.00186982
0.0018429
0.00181527
0.00178636
0.0017269
8.10177e-05
0.000190826
0.000286342
0.000349815
0.000386368
0.000406155
0.000416122
0.000422062
0.000426422
0.000425387
0.00042561
0.000447312
0.000458817
0.000488005
0.000514852
0.000549567
0.000589336
0.000634464
0.000684289
0.000736198
0.000792965
0.000852237
0.000912962
0.000974695
0.00103708
0.00109992
0.00116312
0.00122664
0.00129049
0.00135471
0.00141942
0.00148472
0.00155068
0.0016174
0.00168492
0.0017533
0.00182257
0.00189271
0.00196372
0.00203555
0.00210814
0.00218141
0.00225528
0.00232963
0.00240434
0.00247928
0.00255431
0.00262928
0.00270404
0.00277844
0.00285229
0.00292541
0.00299755
0.00306837
0.00313733
0.00320366
0.00326685
0.00332836
0.00338802
0.00344567
0.00350118
0.0035544
0.0036052
0.00365346
0.00369904
0.00374183
0.00378171
0.00381857
0.00385231
0.00388287
0.00391019
0.00393437
0.00395557
0.00397456
0.00398749
0.00399686
0.00400585
0.00401072
0.00401219
0.00401052
0.00400585
0.0039983
0.00398799
0.00397507
0.00395968
0.00394198
0.00392213
0.00390032
0.0038767
0.0038515
0.00382484
0.00379698
0.00376789
0.00373683
0.00369799
0.00365514
0.00361097
0.00356496
0.00351503
0.00341653
0.000108922
0.000249302
0.000361311
0.000433323
0.000474798
0.000497953
0.00051273
0.00052614
0.000540961
0.000556386
0.000577216
0.000607149
0.000641147
0.000683448
0.000730644
0.000785829
0.000847658
0.000915589
0.000988704
0.00106611
0.00114588
0.00122753
0.00131079
0.00139515
0.00148021
0.00156591
0.00165223
0.00173923
0.0018271
0.00191579
0.00200524
0.00209555
0.00218681
0.00227912
0.00237251
0.00246703
0.00256268
0.00265945
0.00275729
0.00285613
0.00295588
0.00305642
0.00315763
0.00325933
0.00336138
0.00346359
0.00356576
0.00366769
0.00376917
0.00386998
0.00396987
0.00406858
0.0041658
0.00426115
0.00435417
0.00444431
0.00453158
0.00461655
0.004699
0.00477872
0.00485552
0.0049292
0.00499961
0.00506655
0.00512987
0.00518941
0.00524499
0.00529648
0.00534374
0.00538667
0.00542518
0.00545932
0.00548967
0.0055171
0.00553562
0.00555049
0.00556377
0.00557168
0.00557498
0.00557396
0.0055688
0.00555966
0.00554671
0.00553014
0.00551013
0.0054869
0.00546066
0.00543166
0.0054001
0.00536628
0.0053304
0.00529275
0.00525339
0.00521179
0.00516409
0.00511244
0.0050591
0.00500345
0.00494234
0.00483115
0.000135927
0.000300271
0.000428535
0.000509747
0.000557478
0.000586313
0.00060759
0.000628668
0.000652757
0.000680897
0.000715473
0.000757866
0.000807541
0.000864775
0.000929319
0.00100175
0.00108113
0.0011665
0.00125678
0.0013509
0.0014477
0.00154665
0.00164734
0.0017494
0.00185267
0.00195689
0.0020619
0.00216767
0.00227412
0.00238135
0.00248957
0.00259885
0.00270929
0.00282092
0.00293379
0.00304791
0.00316326
0.00327979
0.00339744
0.00351611
0.00363567
0.00375598
0.00387687
0.00399816
0.00411964
0.00424112
0.00436236
0.00448312
0.00460317
0.00472225
0.00484009
0.0049564
0.00507088
0.00518319
0.00529303
0.00540026
0.00550469
0.00560638
0.00570511
0.00580066
0.00589281
0.00598135
0.00606608
0.00614679
0.0062233
0.00629541
0.00636295
0.00642573
0.00648361
0.00653642
0.00658407
0.00662649
0.00666506
0.00669964
0.00672366
0.00674457
0.00676249
0.00677437
0.00678082
0.00678217
0.00677859
0.00677028
0.00675743
0.00674024
0.00671893
0.00669373
0.00666489
0.00663268
0.00659736
0.00655923
0.00651855
0.00647564
0.00643065
0.0063833
0.00633135
0.00627588
0.0062186
0.006159
0.00609333
0.00598398
0.000160027
0.000345381
0.000488891
0.000580132
0.000635846
0.000671797
0.000700166
0.000728785
0.00076148
0.000799953
0.000845753
0.000899761
0.000962099
0.00103245
0.00111074
0.00119667
0.00128934
0.00138769
0.00149069
0.00159735
0.00170685
0.00181863
0.00193226
0.00204742
0.00216386
0.00228138
0.00239985
0.00251922
0.00263947
0.00276067
0.00288293
0.0030063
0.00313085
0.00325661
0.00338359
0.00351178
0.00364116
0.00377168
0.00390324
0.00403575
0.00416907
0.00430305
0.00443752
0.00457228
0.00470714
0.00484188
0.00497627
0.00511006
0.005243
0.00537484
0.0055053
0.00563411
0.00576096
0.00588559
0.00600772
0.00612718
0.00624378
0.00635741
0.00646785
0.00657487
0.00667823
0.0067777
0.00687308
0.00696414
0.00705068
0.00713249
0.00720936
0.00728111
0.00734756
0.00740852
0.00746386
0.00751346
0.00755932
0.00759963
0.00762959
0.00765653
0.00767931
0.00769563
0.00770602
0.00771076
0.00771005
0.0077041
0.00769309
0.00767724
0.00765678
0.00763196
0.00760303
0.00757028
0.007534
0.00749448
0.00745204
0.00740698
0.00735954
0.00730966
0.00725616
0.00719961
0.00714131
0.00708103
0.00701488
0.00691377
0.00017829
0.000383264
0.000541162
0.000643234
0.000708512
0.000752743
0.000788592
0.000824556
0.000865138
0.000912453
0.000967761
0.00103169
0.00110431
0.00118521
0.00127401
0.0013701
0.00147257
0.0015804
0.00169266
0.00180852
0.00192725
0.00204832
0.00217132
0.00229594
0.00242192
0.00254909
0.00267736
0.00280663
0.00293684
0.00306802
0.00320021
0.00333346
0.00346781
0.00360327
0.00373984
0.00387752
0.00401627
0.00415604
0.00429675
0.0044383
0.00458058
0.00472344
0.00486672
0.00501024
0.00515382
0.00529724
0.00544029
0.00558273
0.00572432
0.00586481
0.00600393
0.00614142
0.006277
0.0064104
0.00654138
0.00666972
0.00679522
0.00691768
0.00703686
0.00715254
0.00726446
0.00737238
0.00747609
0.00757534
0.00766992
0.00775961
0.0078442
0.00792347
0.00799722
0.00806525
0.00812738
0.00818351
0.00823584
0.00828124
0.00831736
0.00835025
0.00837807
0.00839916
0.00841395
0.00842273
0.00842572
0.00842308
0.00841503
0.00840178
0.00838355
0.00836061
0.00833322
0.00830167
0.00826625
0.00822728
0.00818506
0.00813992
0.00809214
0.00804183
0.00798846
0.00793245
0.00787483
0.00781573
0.00775137
0.00766093
0.000188514
0.000419227
0.00058683
0.000699159
0.000774407
0.000827636
0.000871277
0.000914405
0.000962184
0.00101711
0.00108037
0.00115239
0.00123311
0.00132213
0.0014188
0.0015223
0.00163175
0.00174622
0.00186484
0.0019868
0.00211177
0.00223924
0.00236874
0.00249967
0.00263197
0.00276548
0.00290024
0.00303608
0.0031728
0.00331038
0.00344883
0.00358821
0.00372851
0.00386977
0.00401199
0.00415518
0.0042993
0.00444434
0.00459024
0.00473693
0.00488431
0.00503227
0.00518068
0.00532938
0.00547821
0.00562698
0.00577549
0.00592352
0.00607083
0.00621718
0.00636232
0.00650598
0.0066479
0.00678781
0.00692545
0.00706057
0.00719294
0.00732232
0.00744846
0.00757111
0.00769001
0.00780491
0.00791558
0.00802176
0.00812323
0.00821975
0.00831111
0.00839706
0.0084774
0.0085519
0.00862033
0.0086827
0.00874083
0.00879122
0.00883362
0.00887236
0.00890548
0.00893154
0.00895107
0.00896435
0.00897157
0.00897291
0.00896855
0.00895872
0.00894364
0.00892357
0.00889879
0.00886958
0.00883623
0.00879906
0.00875838
0.00871452
0.0086678
0.00861844
0.00856631
0.00851181
0.00845588
0.00839895
0.00833755
0.00825783
0.000193035
0.000471941
0.00062763
0.000749627
0.000833194
0.000895466
0.000947019
0.000997083
0.00105139
0.00111279
0.00118262
0.00126108
0.00134768
0.00144158
0.00154261
0.00165019
0.0017635
0.00188172
0.00200413
0.00213011
0.00225904
0.00239042
0.00252384
0.00265902
0.00279563
0.00293335
0.00307163
0.00321095
0.00335093
0.00349152
0.00363278
0.00377474
0.00391745
0.00406093
0.00420523
0.00435038
0.0044964
0.00464331
0.00479108
0.0049397
0.00508911
0.00523924
0.00538998
0.00554123
0.00569283
0.00584462
0.0059964
0.00614798
0.00629912
0.00644959
0.00659911
0.00674743
0.00689427
0.00703934
0.00718236
0.00732306
0.00746117
0.00759641
0.00772853
0.00785723
0.00798225
0.00810334
0.00822024
0.00833268
0.00844044
0.00854325
0.00864089
0.00873312
0.0088197
0.0089004
0.00897492
0.00904349
0.00910683
0.00916251
0.00921126
0.00925579
0.00929456
0.00932579
0.00935035
0.00936849
0.00938037
0.00938616
0.00938605
0.00938024
0.00936896
0.00935248
0.00933106
0.00930498
0.00927455
0.00924006
0.00920185
0.00916022
0.00911553
0.00906805
0.00901793
0.00896558
0.00891195
0.00885772
0.00879978
0.00872999
0.000201747
0.000483048
0.000652187
0.000788504
0.000883665
0.000955406
0.00101485
0.00107153
0.00113174
0.00119839
0.00127211
0.00135362
0.00144321
0.00154054
0.00164505
0.00175579
0.00187188
0.00199253
0.00211707
0.00224487
0.0023753
0.00250788
0.00264223
0.00277806
0.00291504
0.00305296
0.00319197
0.00333183
0.00347186
0.00361211
0.00375274
0.00389385
0.00403553
0.00417787
0.00432096
0.0044649
0.00460978
0.00475566
0.0049026
0.00505062
0.00519972
0.00534986
0.00550097
0.00565297
0.00580573
0.00595908
0.00611284
0.0062668
0.00642072
0.00657436
0.00672742
0.00687963
0.00703068
0.00718026
0.00732806
0.00747377
0.00761709
0.00775771
0.00789535
0.00802969
0.00816046
0.00828738
0.00841019
0.0085286
0.00864238
0.00875126
0.00885499
0.00895334
0.00904605
0.00913287
0.00921353
0.00928818
0.00935666
0.00941788
0.009473
0.00952344
0.0095683
0.00960488
0.00963475
0.0096581
0.00967504
0.00968572
0.00969032
0.00968904
0.00968211
0.00966978
0.00965232
0.00963001
0.00960315
0.00957204
0.009537
0.00949834
0.0094564
0.00941152
0.009364
0.00931428
0.00926337
0.00921213
0.00915779
0.00909692
0.000238935
0.000498388
0.000681734
0.000823313
0.000927021
0.00100717
0.00107404
0.00113667
0.00120054
0.00126965
0.00134634
0.00143143
0.00152412
0.00162392
0.00172986
0.00184127
0.00195751
0.00207786
0.00220168
0.00232835
0.00245729
0.0025881
0.00272039
0.00285382
0.00298816
0.00312299
0.00325914
0.00339592
0.00353276
0.00366918
0.00380568
0.00394253
0.0040799
0.00421795
0.00435687
0.00449685
0.00463808
0.00478068
0.00492477
0.00507043
0.00521768
0.00536653
0.00551691
0.00566874
0.00582188
0.00597617
0.0061314
0.00628734
0.00644371
0.00660024
0.00675663
0.00691253
0.00706763
0.00722156
0.007374
0.00752459
0.007673
0.00781888
0.00796193
0.00810181
0.00823823
0.00837088
0.00849951
0.00862382
0.00874355
0.00885844
0.00896824
0.00907269
0.00917154
0.00926455
0.00935144
0.0094321
0.00950614
0.00957297
0.00963436
0.00969117
0.00974243
0.00978461
0.00982012
0.00984904
0.00987144
0.00988745
0.00989723
0.00990097
0.00989889
0.00989124
0.0098783
0.00986034
0.00983764
0.00981051
0.00977926
0.00974419
0.00970564
0.00966397
0.00961957
0.00957292
0.00952507
0.00947704
0.0094263
0.00937337
0.000287488
0.000535784
0.000713291
0.000853754
0.000963665
0.00105025
0.00112218
0.00118842
0.00125618
0.0013294
0.0014093
0.00149588
0.00158913
0.00168847
0.0017933
0.00190295
0.00201676
0.00213406
0.00225421
0.00237662
0.00250076
0.00262627
0.00275288
0.0028801
0.00300819
0.00313786
0.00326769
0.003397
0.00352625
0.00365518
0.0037841
0.00391348
0.00404359
0.00417469
0.00430709
0.00444111
0.004577
0.00471498
0.00485519
0.00499773
0.00514263
0.00528987
0.00543939
0.00559105
0.00574469
0.0059001
0.00605703
0.0062152
0.0063743
0.006534
0.00669395
0.00685378
0.00701312
0.00717159
0.00732881
0.0074844
0.00763798
0.0077892
0.00793772
0.00808319
0.00822528
0.0083637
0.00849817
0.00862839
0.0087541
0.00887503
0.00899093
0.00910153
0.00920659
0.00930586
0.00939905
0.00948592
0.00956561
0.00963849
0.00970616
0.00976983
0.00982757
0.00987572
0.00991725
0.00995214
0.00998045
0.0100022
0.0100177
0.010027
0.0100303
0.0100278
0.01002
0.0100069
0.00998898
0.00996643
0.00993957
0.0099087
0.00987415
0.00983628
0.00979553
0.00975239
0.00970796
0.00966334
0.00961621
0.00957044
0.00031452
0.00056029
0.000736146
0.000876866
0.000988701
0.00107995
0.0011575
0.00122946
0.00130133
0.0013764
0.00145673
0.00154292
0.0016352
0.00173315
0.00183555
0.00194155
0.00205039
0.00216148
0.0022742
0.00238773
0.00250174
0.00261655
0.00273263
0.00285098
0.00296966
0.0030875
0.0032049
0.003322
0.00343931
0.00355713
0.00367552
0.00379502
0.00391592
0.00403851
0.00416328
0.00429065
0.00442093
0.00455435
0.00469102
0.00483101
0.00497429
0.00512078
0.00527034
0.00542278
0.00557785
0.00573528
0.00589474
0.0060559
0.00621841
0.00638187
0.00654591
0.00671011
0.00687406
0.00703736
0.00719959
0.00736036
0.00751926
0.00767592
0.00782999
0.00798109
0.0081289
0.00827309
0.00841341
0.00854955
0.00868125
0.00880822
0.00893026
0.00904705
0.00915837
0.00926399
0.00936359
0.00945674
0.00954208
0.00962188
0.00969565
0.0097667
0.00983094
0.00988546
0.00993343
0.00997475
0.0100094
0.0100375
0.0100591
0.0100745
0.0100837
0.0100871
0.0100849
0.0100774
0.0100648
0.0100475
0.0100257
0.00999963
0.00996971
0.00993624
0.0098997
0.00986057
0.00981996
0.00977903
0.00973558
0.00969639
0.00031016
0.000569665
0.000749009
0.000891179
0.0010067
0.00110194
0.00118448
0.00126018
0.00133444
0.00141059
0.00149047
0.00157456
0.00166259
0.00175373
0.00184744
0.001943
0.00203948
0.00213699
0.0022355
0.002336
0.00243869
0.0025418
0.00264491
0.00274756
0.00284936
0.00294964
0.00304976
0.00315049
0.00325266
0.00335736
0.0034641
0.00357345
0.00368542
0.00380014
0.00391833
0.00404049
0.0041669
0.00429767
0.00443284
0.00457232
0.004716
0.00486365
0.00501505
0.00516988
0.00532783
0.00548853
0.00565161
0.00581669
0.00598335
0.00615118
0.00631976
0.00648867
0.00665748
0.00682575
0.00699307
0.00715904
0.00732324
0.00748528
0.00764482
0.00780147
0.00795488
0.00810473
0.0082508
0.00839275
0.00853035
0.00866329
0.00879142
0.00891435
0.00903194
0.00914394
0.00925002
0.0093489
0.0094411
0.00952778
0.00960781
0.00968662
0.00975733
0.00981867
0.00987352
0.00992173
0.00996327
0.00999818
0.0100266
0.0100486
0.0100644
0.0100742
0.0100784
0.010077
0.0100705
0.010059
0.0100429
0.0100224
0.00999778
0.00996939
0.00993769
0.00990311
0.00986682
0.00982993
0.00979031
0.00975736
0.000307505
0.00057093
0.00075759
0.000901455
0.00101988
0.0011183
0.00120299
0.00127946
0.00135229
0.00142455
0.00149791
0.00157239
0.00164782
0.00172445
0.00180217
0.00188136
0.00196311
0.00204511
0.00212695
0.00220873
0.00228989
0.0023704
0.00244957
0.00252661
0.00260406
0.00268349
0.00276519
0.00284997
0.00293856
0.00303147
0.00312938
0.00323237
0.00333951
0.00345018
0.00356578
0.00368677
0.00381323
0.0039451
0.0040822
0.00422431
0.00437112
0.00452233
0.00467757
0.00483648
0.00499866
0.0051637
0.00533121
0.00550077
0.00567197
0.00584439
0.0060176
0.00619119
0.00636474
0.00653782
0.00671002
0.00688096
0.00705019
0.00721738
0.00738216
0.00754413
0.00770293
0.00785826
0.00800996
0.0081576
0.00830104
0.00843989
0.00857411
0.00870322
0.00882715
0.00894568
0.00905791
0.00916301
0.00926331
0.00935638
0.00944349
0.0095303
0.00960763
0.00967646
0.00973882
0.00979458
0.00984367
0.00988613
0.00992201
0.00995146
0.00997463
0.00999174
0.010003
0.0100087
0.010009
0.0100043
0.0099947
0.00998053
0.00996203
0.00993948
0.00991336
0.00988402
0.00985263
0.00982026
0.00978476
0.00975791
0.00028809
0.000558575
0.000748303
0.000894844
0.00101419
0.00111202
0.00119397
0.00126468
0.00132836
0.00138856
0.00144726
0.0015066
0.00156662
0.00162599
0.00168419
0.00174093
0.00179618
0.00184983
0.00190181
0.00195083
0.0019982
0.00204628
0.00209653
0.00215055
0.00220917
0.00227352
0.00234391
0.00242081
0.00250442
0.00259473
0.0026917
0.00279472
0.00290239
0.00301562
0.0031349
0.00326025
0.00339146
0.00352828
0.00367037
0.00381741
0.00396903
0.00412487
0.00428455
0.0044477
0.00461394
0.00478286
0.00495411
0.00512731
0.00530207
0.005478
0.00565471
0.00583183
0.00600896
0.00618567
0.00636164
0.00653647
0.00670971
0.00688106
0.00705019
0.00721665
0.00738008
0.00754016
0.00769689
0.00784965
0.00799846
0.00814276
0.00828277
0.00841772
0.00854776
0.0086723
0.00879008
0.00890357
0.00901037
0.00910942
0.00920455
0.00929868
0.0093828
0.00945958
0.00952994
0.00959381
0.00965111
0.00970184
0.00974604
0.00978379
0.00981525
0.00984059
0.00986002
0.00987376
0.0098819
0.00988478
0.00988266
0.00987576
0.00986429
0.00984852
0.00982886
0.00980559
0.00977988
0.0097527
0.00972184
0.00970127
0.000263307
0.000531097
0.000731737
0.000873866
0.000986316
0.00107545
0.0011463
0.00120465
0.00125539
0.0012999
0.00133997
0.00137587
0.00140764
0.00143656
0.00146207
0.00148373
0.00150027
0.00151603
0.00153329
0.00155419
0.00158015
0.00161259
0.00165265
0.00170135
0.00175892
0.00182525
0.00189972
0.00198251
0.00207288
0.00217035
0.00227395
0.00238148
0.00249402
0.00261293
0.00273768
0.00286796
0.00300347
0.00314392
0.003289
0.00343843
0.0035919
0.00374913
0.00390981
0.00407365
0.00424032
0.00440951
0.00458091
0.00475421
0.0049291
0.00510518
0.00528215
0.00545969
0.0056374
0.00581486
0.00599185
0.00616796
0.00634271
0.00651585
0.00668711
0.00685591
0.00702194
0.00718482
0.00734412
0.00749944
0.00765124
0.00779863
0.00794232
0.00808097
0.00821478
0.00834306
0.00846719
0.00858601
0.00869871
0.00880334
0.00890618
0.00900685
0.00909755
0.00918179
0.00925973
0.00933132
0.00939647
0.00945515
0.00950737
0.0095532
0.00959275
0.00962619
0.00965369
0.00967544
0.00969177
0.00970281
0.00970872
0.00970968
0.00970585
0.00969743
0.0096848
0.00966813
0.00964853
0.00962686
0.00960076
0.0095864
0.000247706
0.000509862
0.000701489
0.000831254
0.00092979
0.00100504
0.00105838
0.00109498
0.00111881
0.0011318
0.00113786
0.00113776
0.00113074
0.00111727
0.00110304
0.00109121
0.00108473
0.00108606
0.00109712
0.00111925
0.00115275
0.00119711
0.00125127
0.00131493
0.0013878
0.00146845
0.00155519
0.00164921
0.00174859
0.00185108
0.00195659
0.00206695
0.00218265
0.00230331
0.00242866
0.00255847
0.00269257
0.00283079
0.00297296
0.00311891
0.00326846
0.00342144
0.00357765
0.0037369
0.00389895
0.00406353
0.00423043
0.00439942
0.00457021
0.0047424
0.00491581
0.00509013
0.00526495
0.00543985
0.00561474
0.00578919
0.00596258
0.00613424
0.00630414
0.00647184
0.00663712
0.00680025
0.00696114
0.00711824
0.00727256
0.00742243
0.00756947
0.00771039
0.00784808
0.00798132
0.00810984
0.00823342
0.00835061
0.00845963
0.00856903
0.00867484
0.0087714
0.00886211
0.00894682
0.00902543
0.00909782
0.00916393
0.00922374
0.00927728
0.00932463
0.00936592
0.00940129
0.00943092
0.0094549
0.00947357
0.00948703
0.00949544
0.0094989
0.00949758
0.00949179
0.0094816
0.00946809
0.00945194
0.00943077
0.00942194
0.000245957
0.000481829
0.00065461
0.00076537
0.000839857
0.000883661
0.000899424
0.000896267
0.000880504
0.000851691
0.000815471
0.000776839
0.000739533
0.000711161
0.00069512
0.000693585
0.000707215
0.000735012
0.000774818
0.000826083
0.000887968
0.000957763
0.00103279
0.0011131
0.00119936
0.00128926
0.00138072
0.00147275
0.0015679
0.00166704
0.00177024
0.00187712
0.00198774
0.00210212
0.00222025
0.00234207
0.00246758
0.00259672
0.00272946
0.00286572
0.00300544
0.00314855
0.00329495
0.00344452
0.0035971
0.00375242
0.0039104
0.00407087
0.00423355
0.00439798
0.00456416
0.00473175
0.00490032
0.00506911
0.00523791
0.0054067
0.00557533
0.00574384
0.00591137
0.00607715
0.00624106
0.00640311
0.00656317
0.00671936
0.00687387
0.00702368
0.00717037
0.00731364
0.00745312
0.00758836
0.00771938
0.00784604
0.00796607
0.00807861
0.00819301
0.00830264
0.00840416
0.00850064
0.00859154
0.00867663
0.00875574
0.00882877
0.00889567
0.00895645
0.00901117
0.00905991
0.0091028
0.00913999
0.00917158
0.00919782
0.00921878
0.00923461
0.00924535
0.00925115
0.00925222
0.00924854
0.00924112
0.00923045
0.00921413
0.00921027
0.0002248
0.000459649
0.000595783
0.000654782
0.000682527
0.000676969
0.000638918
0.000593246
0.000540919
0.000483905
0.00044156
0.000417025
0.000410408
0.000423884
0.000454081
0.000499152
0.000557246
0.000623807
0.000693839
0.000768587
0.000848587
0.000929811
0.00100997
0.00108827
0.00116651
0.00124641
0.00132918
0.00141449
0.00150214
0.00159238
0.00168543
0.00178141
0.00188044
0.00198265
0.00208812
0.00219694
0.00230915
0.00242479
0.00254391
0.00266648
0.00279253
0.00292208
0.00305509
0.00319151
0.00333123
0.00347397
0.00361983
0.00376865
0.00392014
0.00407374
0.00422911
0.00438617
0.00454477
0.00470537
0.00486695
0.0050293
0.00519182
0.00535434
0.00551647
0.00567721
0.00583679
0.0059953
0.00615246
0.00630546
0.00645726
0.00660609
0.00675179
0.00689441
0.00703422
0.00717065
0.0073034
0.00743238
0.00755401
0.00767023
0.00778812
0.00790081
0.00800641
0.00810671
0.00820181
0.00829151
0.00837563
0.00845405
0.00852666
0.00859347
0.00865446
0.00870971
0.00875928
0.00880331
0.00884187
0.00887513
0.00890313
0.00892598
0.00894362
0.00895616
0.00896369
0.00896608
0.00896418
0.00895833
0.00894594
0.00894581
0.000209541
0.000448804
0.000520628
0.000466871
0.000432272
0.000387806
0.000314267
0.000264775
0.000237744
0.000229008
0.000244947
0.000280563
0.000336388
0.000403802
0.000476171
0.000552541
0.000633156
0.000712349
0.000786011
0.000855934
0.000923031
0.000989716
0.00105776
0.00112653
0.00119622
0.00126683
0.00133886
0.00141265
0.0014884
0.0015663
0.00164659
0.00172947
0.00181508
0.00190358
0.00199506
0.00208963
0.00218737
0.00228837
0.00239271
0.00250041
0.00261157
0.0027263
0.00284459
0.00296644
0.00309179
0.00322029
0.00335192
0.00348667
0.00362424
0.00376509
0.00390878
0.00405487
0.00420309
0.00435314
0.00450473
0.00465781
0.00481156
0.00496605
0.00512067
0.00527416
0.00542746
0.00558018
0.00573248
0.00588251
0.00603106
0.00617741
0.00632124
0.00646248
0.00659996
0.0067342
0.00686539
0.00699342
0.00711341
0.00723062
0.00734918
0.00746225
0.00756998
0.0076732
0.0077717
0.00786526
0.00795365
0.00803672
0.00811436
0.00818652
0.00825316
0.00831431
0.00836998
0.00842032
0.00846532
0.00850514
0.00853972
0.00856918
0.00859334
0.00861231
0.00862598
0.0086342
0.00863763
0.00863637
0.008628
0.00863058
0.000200896
0.00056395
0.000454215
0.000211413
0.000162099
0.000134157
0.000118357
0.000133867
0.000171855
0.000236347
0.000308863
0.000384993
0.000472686
0.000555331
0.000630828
0.000697436
0.000758476
0.000817875
0.000877583
0.000936702
0.000994712
0.00105214
0.00110997
0.00116745
0.00122667
0.00128674
0.00134792
0.00141065
0.00147518
0.00154169
0.00161038
0.00168143
0.00175497
0.00183111
0.00190993
0.00199152
0.002076
0.00216348
0.00225402
0.00234767
0.00244456
0.00254474
0.00264828
0.00275524
0.00286559
0.00297988
0.00309779
0.00321917
0.00334367
0.00347123
0.00360175
0.00373506
0.00387093
0.00400909
0.0041493
0.00429165
0.00443567
0.00458103
0.00472731
0.00487355
0.00501986
0.00516556
0.00531011
0.00545312
0.00559486
0.00573495
0.00587315
0.00600923
0.00614316
0.00627434
0.00640319
0.00652929
0.00664691
0.00676419
0.00688254
0.00699531
0.00710405
0.00720883
0.00730943
0.00740559
0.00749707
0.00758368
0.00766526
0.00774178
0.00781311
0.00787927
0.00794021
0.00799607
0.00804675
0.00809244
0.00813294
0.0081684
0.00819848
0.00822334
0.00824262
0.00825618
0.00826443
0.00826719
0.00826254
0.00826631
0.000197417
2.50426e-05
5.25431e-06
5.48013e-05
6.20412e-05
9.5663e-05
0.00015657
0.000232394
0.000311886
0.000407825
0.000485215
0.000554435
0.000615048
0.000670036
0.000727973
0.000779632
0.000830224
0.000880141
0.00092929
0.000977774
0.001026
0.00107422
0.00112306
0.00117215
0.00122253
0.00127387
0.00132627
0.00138027
0.00143599
0.00149352
0.00155304
0.00161466
0.00167845
0.00174445
0.00181271
0.00188331
0.00195637
0.00203199
0.00211036
0.0021918
0.00227633
0.002364
0.0024549
0.00254912
0.00264666
0.00274755
0.00285203
0.00295991
0.00307125