/*--------------------------------*- C++ -*----------------------------------*\
| =========                 |                                                 |
| \\      /  F ield         | OpenFOAM: The Open Source CFD Toolbox           |
|  \\    /   O peration     | Version:  5.x                                   |
|   \\  /    A nd           | Web:      www.OpenFOAM.org                      |
|    \\/     M anipulation  |                                                 |
\*---------------------------------------------------------------------------*/
FoamFile
{
    version     2.0;
    format      ascii;
    class       volScalarField;
    location    "284";
    object      p;
}
// * * * * * * * * * * * * * * * * * * * * * * * * * * * * * * * * * * * * * //

dimensions      [0 2 -2 0 0 0 0];

internalField   nonuniform List<scalar> 
5760
(
-21.3489
-24.3814
-26.2824
-26.8662
-27.1443
-27.4207
-27.6497
-27.8157
-27.9459
-28.061
-28.1653
-28.2606
-28.3477
-28.429
-28.5068
-28.5684
-28.6578
-28.5775
-26.7905
-28.0972
-28.3514
-28.1128
-27.9639
-27.9706
-28.0246
-28.0768
-28.1299
-28.1893
-28.2529
-28.3171
-28.381
-28.444
-28.5081
-28.5706
-28.6445
-28.7473
-27.3065
-26.9994
-26.9946
-27.1108
-27.2699
-27.4574
-27.6344
-27.7803
-27.9028
-28.0126
-28.114
-28.2073
-28.2944
-28.3761
-28.456
-28.5334
-28.6222
-28.7132
-27.1482
-26.8475
-27.097
-27.4086
-27.5865
-27.7154
-27.8375
-27.9451
-28.0374
-28.1218
-28.2024
-28.2792
-28.3527
-28.4235
-28.4936
-28.5632
-28.637
-28.7076
-27.1384
-27.0536
-27.2669
-27.484
-27.5928
-27.6817
-27.7885
-27.895
-27.9908
-28.0789
-28.163
-28.2434
-28.3201
-28.3937
-28.4653
-28.5354
-28.6052
-28.6714
-27.2071
-27.2031
-27.325
-27.4788
-27.5921
-27.695
-27.8061
-27.9135
-28.0094
-28.0964
-28.1785
-28.2568
-28.3312
-28.4024
-28.471
-28.5371
-28.6009
-28.6602
-27.2838
-27.2974
-27.3789
-27.5081
-27.6259
-27.7278
-27.8273
-27.924
-28.0136
-28.0967
-28.1757
-28.2513
-28.3236
-28.3927
-28.4588
-28.522
-28.582
-28.6374
-27.3584
-27.378
-27.445
-27.5522
-27.6586
-27.7522
-27.8425
-27.9327
-28.0193
-28.1007
-28.178
-28.2518
-28.3223
-28.3894
-28.4532
-28.5136
-28.5705
-28.6228
-27.4283
-27.4498
-27.5074
-27.5952
-27.6883
-27.7755
-27.8607
-27.9457
-28.0282
-28.1064
-28.1807
-28.2517
-28.3195
-28.3842
-28.4456
-28.5036
-28.5582
-28.6086
-27.5023
-27.5229
-27.5716
-27.6433
-27.7237
-27.8038
-27.8829
-27.9615
-28.0385
-28.1126
-28.1835
-28.2514
-28.3162
-28.378
-28.4365
-28.4917
-28.5438
-28.5924
-27.5854
-27.6031
-27.643
-27.701
-27.7685
-27.8391
-27.9103
-27.9818
-28.0529
-28.1226
-28.1904
-28.2558
-28.3187
-28.379
-28.4363
-28.4905
-28.5415
-28.5889
-27.6662
-27.6805
-27.7128
-27.76
-27.8165
-27.8775
-27.9403
-28.0031
-28.0651
-28.1255
-28.1839
-28.2403
-28.2948
-28.3473
-28.398
-28.4471
-28.4945
-28.5406
-27.7211
-27.7329
-27.7599
-27.8004
-27.8506
-27.9081
-27.9715
-28.0393
-28.109
-28.1786
-28.2463
-28.3112
-28.3727
-28.4307
-28.485
-28.5353
-28.5819
-28.6247
-27.7066
-27.7165
-27.7417
-27.7851
-27.8369
-27.8845
-27.9248
-27.9623
-28.0013
-28.0431
-28.0875
-28.134
-28.1822
-28.2318
-28.2825
-28.3341
-28.3864
-28.4393
-27.6625
-27.6692
-27.6797
-27.7207
-27.7967
-27.892
-27.9908
-28.0836
-28.1668
-28.2404
-28.3061
-28.3655
-28.4194
-28.4687
-28.5138
-28.5549
-28.592
-28.625
-27.6055
-27.6029
-27.6486
-27.696
-27.7039
-27.7034
-27.73
-27.7841
-27.8504
-27.9196
-27.9893
-28.0587
-28.1269
-28.1929
-28.2563
-28.3174
-28.3769
-28.4354
-27.5982
-27.3592
-27.484
-27.7904
-28.005
-28.1049
-28.1614
-28.2101
-28.2543
-28.2939
-28.3314
-28.3689
-28.4067
-28.4446
-28.4823
-28.5194
-28.5549
-28.5877
-27.8625
-27.2463
-26.9333
-26.9689
-27.1437
-27.3361
-27.509
-27.6566
-27.7825
-27.8923
-27.9897
-28.0766
-28.1549
-28.2263
-28.2923
-28.3548
-28.4147
-28.4731
-27.7049
-28.588
-28.721
-28.4444
-28.2295
-28.1673
-28.1714
-28.1856
-28.2049
-28.234
-28.2708
-28.3109
-28.3518
-28.3928
-28.4341
-28.4771
-28.5239
-28.5925
-22.8609
-24.9642
-26.5791
-27.1275
-27.3203
-27.5169
-27.7029
-27.8384
-27.9387
-28.0252
-28.1046
-28.1766
-28.2414
-28.2998
-28.352
-28.396
-28.4278
-28.4343
-30.3386
-30.3382
-30.3429
-30.3527
-30.3647
-30.3777
-30.3917
-30.4065
-30.4214
-30.4393
-30.4607
-30.4856
-30.5238
-30.5774
-30.6247
-30.6812
-30.7573
-30.8489
-30.9585
-31.0868
-31.2332
-31.3965
-31.5746
-31.7654
-31.9663
-32.175
-32.3893
-32.6072
-32.8269
-33.0466
-33.2647
-33.4795
-33.689
-33.8914
-34.0845
-34.2657
-34.4325
-34.5818
-34.7106
-34.8152
-34.892
-34.9371
-34.9463
-34.9154
-34.8402
-34.7164
-34.5396
-34.3056
-34.0104
-33.6499
-33.2207
-32.7192
-32.1425
-31.4883
-30.7553
-29.9422
-29.0453
-28.0623
-26.9941
-25.8418
-24.606
-23.2883
-21.8906
-20.4154
-18.8657
-17.2454
-15.5588
-13.8106
-12.0062
-10.1513
-8.25214
-6.31496
-4.346
-2.35191
-0.340292
1.68228
3.71036
5.73759
7.75734
9.76365
11.7509
13.7139
15.6478
17.5484
19.4116
21.234
23.0125
24.7446
26.428
28.0611
29.6424
31.1705
32.6448
34.0646
35.4299
36.7334
37.9855
39.1569
40.3366
41.3592
-30.3412
-30.3427
-30.3473
-30.3548
-30.3633
-30.3723
-30.3819
-30.3922
-30.404
-30.4179
-30.4348
-30.4587
-30.4879
-30.5185
-30.5626
-30.6282
-30.7034
-30.794
-30.9033
-31.0316
-31.1782
-31.3414
-31.5192
-31.7089
-31.9081
-32.1147
-32.3265
-32.5417
-32.7586
-32.9756
-33.1912
-33.4037
-33.6114
-33.8123
-34.0043
-34.1849
-34.3516
-34.5014
-34.6312
-34.7373
-34.8163
-34.8641
-34.8766
-34.8497
-34.7792
-34.6606
-34.4896
-34.2622
-33.9741
-33.6216
-33.2009
-32.7086
-32.1419
-31.4979
-30.774
-29.9674
-29.0774
-28.1042
-27.0472
-25.9063
-24.682
-23.3757
-21.9893
-20.5251
-18.9863
-17.3764
-15.6997
-13.961
-12.1654
-10.3186
-8.42681
-6.49629
-4.53323
-2.54412
-0.536695
1.48237
3.50769
5.53301
7.55164
9.55761
11.5452
13.5093
15.445
17.3478
19.2139
21.0396
22.8218
24.558
26.2459
27.8835
29.4695
31.0025
32.482
33.906
35.2737
36.5782
37.8339
39.007
40.203
41.2274
-30.3384
-30.3432
-30.3482
-30.354
-30.3598
-30.3651
-30.3701
-30.375
-30.3819
-30.3914
-30.4048
-30.4255
-30.4531
-30.4848
-30.5282
-30.5917
-30.6705
-30.7664
-30.8799
-31.0107
-31.1575
-31.319
-31.4931
-31.6779
-31.8715
-32.0719
-32.2774
-32.4865
-32.6976
-32.9092
-33.1199
-33.3281
-33.5319
-33.7295
-33.9188
-34.0974
-34.2626
-34.4116
-34.5411
-34.6478
-34.7279
-34.7777
-34.7929
-34.7695
-34.7031
-34.5896
-34.4245
-34.2037
-33.9231
-33.5788
-33.167
-32.6845
-32.1281
-31.4951
-30.7828
-29.9886
-29.1113
-28.1512
-27.1076
-25.9805
-24.7703
-23.4781
-22.1058
-20.6557
-19.1308
-17.5346
-15.8712
-14.1452
-12.3619
-10.5267
-8.64566
-6.7252
-4.7714
-2.79067
-0.790706
1.2218
3.2414
5.26182
7.2765
9.27942
11.2649
13.2276
15.1627
17.0658
18.9327
20.7599
22.5442
24.2828
25.9734
27.6141
29.2032
30.7392
32.2213
33.6478
35.0203
36.3295
37.5947
38.771
39.994
40.9974
-30.3252
-30.3343
-30.3411
-30.3468
-30.3513
-30.3545
-30.3571
-30.3597
-30.3644
-30.3727
-30.386
-30.407
-30.4371
-30.4765
-30.5281
-30.5954
-30.6788
-30.7785
-30.8943
-31.0254
-31.1707
-31.3289
-31.4985
-31.6779
-31.8655
-32.0599
-32.2594
-32.4628
-32.6686
-32.8754
-33.0818
-33.2862
-33.4868
-33.6819
-33.8691
-34.0462
-34.2104
-34.359
-34.4887
-34.5962
-34.6776
-34.7292
-34.7468
-34.7264
-34.6636
-34.5541
-34.3937
-34.1782
-33.9033
-33.5652
-33.1602
-32.6848
-32.1359
-31.5107
-30.8066
-30.0214
-29.1539
-28.2036
-27.1701
-26.0532
-24.8534
-23.5717
-22.21
-20.7704
-19.2558
-17.6698
-16.0163
-14.2999
-12.5257
-10.6992
-8.82635
-6.91348
-4.96661
-2.99232
-0.998236
1.00924
3.02454
5.04115
7.05269
9.05315
11.0368
12.9983
14.9328
16.8358
18.7032
20.5313
22.3168
24.0571
25.7496
27.3923
28.9835
30.5218
32.0063
33.4349
34.8104
36.1224
37.3941
38.57
39.8084
40.7713
-30.3011
-30.3158
-30.3267
-30.3338
-30.3385
-30.3416
-30.3441
-30.3474
-30.3533
-30.3637
-30.3804
-30.4055
-30.4405
-30.4869
-30.5462
-30.6199
-30.7082
-30.8113
-30.9288
-31.0599
-31.2038
-31.3593
-31.5251
-31.7001
-31.8829
-32.0723
-32.267
-32.4657
-32.6672
-32.8702
-33.0732
-33.2747
-33.473
-33.6661
-33.852
-34.0281
-34.1919
-34.3405
-34.4707
-34.579
-34.6616
-34.7149
-34.7345
-34.7165
-34.6564
-34.55
-34.393
-34.1811
-33.9102
-33.5764
-33.1759
-32.7053
-32.1613
-31.5413
-30.8427
-30.0635
-29.2023
-28.2584
-27.2314
-26.121
-24.9278
-23.6529
-22.2978
-20.8648
-19.3567
-17.7771
-16.1298
-14.4195
-12.651
-10.83
-8.96219
-7.05403
-5.1114
-3.14123
-1.15098
0.853386
2.86607
4.88034
6.88994
8.88888
10.8714
12.8323
14.7665
16.6696
18.5373
20.3662
22.1527
23.8942
25.588
27.2323
28.8253
30.3653
31.8516
33.2816
34.6583
35.9709
37.2457
38.4181
39.6621
40.5784
-30.2694
-30.2906
-30.3074
-30.3177
-30.3242
-30.3286
-30.3328
-30.3386
-30.3479
-30.3626
-30.3846
-30.4155
-30.4569
-30.5099
-30.5757
-30.655
-30.7477
-30.8539
-30.9729
-31.1042
-31.2469
-31.4002
-31.563
-31.7344
-31.9134
-32.0988
-32.2896
-32.4846
-32.6828
-32.8828
-33.0833
-33.2827
-33.4793
-33.6712
-33.8563
-34.0321
-34.196
-34.345
-34.4759
-34.5852
-34.6691
-34.7239
-34.7453
-34.7292
-34.6713
-34.5672
-34.4127
-34.2034
-33.9352
-33.6042
-33.2067
-32.7392
-32.1985
-31.5818
-30.8868
-30.1113
-29.254
-28.3141
-27.2911
-26.1848
-24.9957
-23.7248
-22.3738
-20.9449
-19.4408
-17.8651
-16.2217
-14.5151
-12.7503
-10.9326
-9.06809
-7.16283
-5.2229
-3.25554
-1.26796
0.734318
2.74519
4.7578
6.76596
8.76372
10.7453
12.7056
14.6394
16.5423
18.4102
20.2393
22.0264
23.7685
25.4632
27.1085
28.7024
30.2435
31.7308
33.1614
34.5388
35.8512
37.1274
38.295
39.541
40.4108
-30.2364
-30.2643
-30.2877
-30.3024
-30.3116
-30.3184
-30.3254
-30.3348
-30.3485
-30.3685
-30.3964
-30.4337
-30.4815
-30.5407
-30.6122
-30.696
-30.7924
-30.9008
-31.021
-31.1523
-31.2941
-31.4457
-31.6062
-31.7749
-31.9509
-32.1333
-32.3213
-32.5137
-32.7095
-32.9074
-33.1062
-33.3043
-33.5
-33.6914
-33.8764
-34.0524
-34.2167
-34.3665
-34.4984
-34.6089
-34.6942
-34.7504
-34.7734
-34.7589
-34.7026
-34.6001
-34.4472
-34.2396
-33.9731
-33.6438
-33.248
-32.7822
-32.2432
-31.6284
-30.9352
-30.1618
-29.3067
-28.369
-27.3482
-26.2441
-25.0572
-23.7886
-22.4399
-21.0132
-19.5116
-17.9382
-16.2971
-14.5927
-12.8301
-11.0145
-9.15203
-7.24858
-5.31046
-3.34518
-1.35955
0.641141
2.65055
4.66178
6.66865
8.66524
10.6459
12.6053
14.5384
16.4409
18.3084
20.1374
21.9245
23.6667
25.3617
27.0073
28.6016
30.1431
31.6308
33.0618
34.4395
35.7515
37.0282
38.1904
39.4369
40.2626
-30.2088
-30.2421
-30.2719
-30.2911
-30.3035
-30.313
-30.3231
-30.3365
-30.355
-30.3803
-30.4139
-30.4571
-30.5106
-30.5752
-30.6513
-30.7389
-30.838
-30.9482
-31.0693
-31.2006
-31.3417
-31.492
-31.6509
-31.8177
-31.9917
-32.1721
-32.3581
-32.5488
-32.7432
-32.94
-33.1379
-33.3355
-33.5311
-33.7226
-33.908
-34.0847
-34.25
-34.4008
-34.5339
-34.6456
-34.7323
-34.7898
-34.814
-34.8007
-34.7455
-34.644
-34.492
-34.2852
-34.0194
-33.6907
-33.2955
-32.8301
-32.2917
-31.6774
-30.9848
-30.212
-29.3576
-28.4207
-27.4006
-26.2972
-25.1112
-23.8435
-22.4958
-21.0702
-19.5696
-17.9973
-16.3573
-14.6542
-12.8928
-11.0785
-9.21718
-7.3148
-5.37793
-3.4142
-1.43002
0.569378
2.57754
4.58753
6.59314
8.58852
10.568
12.5264
14.4586
16.3603
18.2272
20.0556
21.8422
23.5842
25.2789
26.9244
28.5187
30.0601
31.5479
32.9788
34.3566
35.6679
36.9444
38.1008
39.3467
40.1315
-30.1905
-30.2265
-30.2613
-30.2843
-30.2999
-30.3124
-30.3259
-30.3432
-30.3662
-30.3965
-30.4352
-30.4833
-30.5416
-30.6104
-30.6901
-30.7805
-30.8817
-30.9933
-31.1149
-31.2463
-31.3869
-31.5364
-31.6942
-31.8598
-32.0326
-32.2119
-32.397
-32.5869
-32.7807
-32.9772
-33.1751
-33.3729
-33.569
-33.7612
-33.9475
-34.1253
-34.2918
-34.4439
-34.5782
-34.6912
-34.7789
-34.8374
-34.8625
-34.8498
-34.7951
-34.694
-34.5421
-34.3352
-34.0691
-33.7401
-33.3443
-32.8785
-32.3395
-31.7245
-31.0314
-30.2582
-29.4033
-28.466
-27.4455
-26.342
-25.1557
-23.8879
-22.5402
-21.1147
-19.6143
-18.0423
-16.4028
-14.7001
-12.9393
-11.1257
-9.2651
-7.36341
-5.42749
-3.46496
-1.48198
0.516217
2.52318
4.53192
6.53617
8.53019
10.5084
12.4655
14.3966
16.2972
18.1631
19.9906
21.7765
23.5177
25.2119
26.8569
28.4508
29.992
31.4795
32.9102
34.2877
35.5981
36.8738
38.0243
39.2685
40.0165
-30.1827
-30.2189
-30.2557
-30.2815
-30.3001
-30.3159
-30.3329
-30.3539
-30.3809
-30.4153
-30.4582
-30.5103
-30.5722
-30.6442
-30.7263
-30.8187
-30.9212
-31.0336
-31.1557
-31.2871
-31.4276
-31.5766
-31.734
-31.8991
-32.0714
-32.2505
-32.4354
-32.6253
-32.8193
-33.0162
-33.2148
-33.4135
-33.6105
-33.8039
-33.9914
-34.1705
-34.3383
-34.4916
-34.627
-34.7409
-34.8294
-34.8884
-34.9137
-34.9011
-34.8462
-34.7445
-34.5919
-34.384
-34.1169
-33.7866
-33.3894
-32.9221
-32.3816
-31.7652
-31.0706
-30.296
-29.4398
-28.5013
-27.4797
-26.3751
-25.188
-23.9195
-22.5711
-21.1452
-19.6444
-18.0723
-16.4327
-14.7302
-12.9696
-11.1565
-9.29639
-7.39533
-5.46029
-3.49879
-1.51703
0.479864
2.48551
4.49279
6.49548
8.48793
10.4646
12.4202
14.3498
16.249
18.1136
19.9399
21.7246
23.4649
25.1581
26.8023
28.3956
29.9362
31.4233
32.8536
34.2307
35.54
36.8143
37.9591
39.2004
39.916
-30.1872
-30.2183
-30.2523
-30.2815
-30.3035
-30.3225
-30.3429
-30.3673
-30.3977
-30.4354
-30.4814
-30.5363
-30.6005
-30.6744
-30.7581
-30.8516
-30.9549
-31.0678
-31.1901
-31.3217
-31.4621
-31.6112
-31.7686
-31.9338
-32.1064
-32.2857
-32.4711
-32.6617
-32.8566
-33.0546
-33.2543
-33.4542
-33.6526
-33.8472
-34.0361
-34.2163
-34.3852
-34.5394
-34.6755
-34.7898
-34.8784
-34.9372
-34.9621
-34.9486
-34.8926
-34.7896
-34.6353
-34.4257
-34.1566
-33.8241
-33.4248
-32.9552
-32.4125
-31.7939
-31.0972
-30.3206
-29.4626
-28.5223
-27.4992
-26.3931
-25.2047
-23.9351
-22.5858
-21.1592
-19.6579
-18.0855
-16.4458
-14.7433
-12.983
-11.1704
-9.31095
-7.41076
-5.4768
-3.51645
-1.53609
0.459274
2.46332
4.46874
6.46951
8.46001
10.4347
12.3884
14.3161
16.2135
18.0764
19.9012
21.6845
23.4234
25.1155
26.7587
28.3512
29.891
31.3775
32.8072
34.1837
35.4919
36.7644
37.9039
39.141
39.8293
-30.1924
-30.2232
-30.255
-30.2853
-30.3101
-30.332
-30.3552
-30.3823
-30.4152
-30.4551
-30.5029
-30.5594
-30.6249
-30.6998
-30.7842
-30.8782
-30.9818
-31.0949
-31.2173
-31.349
-31.4896
-31.639
-31.7969
-31.9627
-32.1359
-32.316
-32.5024
-32.6942
-32.8904
-33.0898
-33.2909
-33.4921
-33.6916
-33.8873
-34.0771
-34.2581
-34.4275
-34.5819
-34.7179
-34.8317
-34.9195
-34.9772
-35.0006
-34.9854
-34.9273
-34.822
-34.6653
-34.453
-34.1812
-33.846
-33.4438
-32.9714
-32.426
-31.8048
-31.1057
-30.3267
-29.4666
-28.5243
-27.4994
-26.3919
-25.2022
-23.9315
-22.5814
-21.1541
-19.6524
-18.0798
-16.4402
-14.7381
-12.9784
-11.1665
-9.30807
-7.40921
-5.47671
-3.51785
-1.53926
0.454185
2.4561
4.45907
6.45742
8.44548
10.4177
12.369
14.2945
16.1897
18.0505
19.8733
21.6547
23.3921
25.0828
26.7247
28.3161
29.8551
31.3409
32.77
34.1457
35.4528
36.7232
37.8577
39.0893
39.7552
-30.2011
-30.2344
-30.2655
-30.2949
-30.3205
-30.3441
-30.3689
-30.3976
-30.4318
-30.4728
-30.5215
-30.5785
-30.6444
-30.7194
-30.8038
-30.8977
-31.0011
-31.1141
-31.2366
-31.3685
-31.5095
-31.6594
-31.8178
-31.9843
-32.1585
-32.3397
-32.5274
-32.7205
-32.918
-33.1186
-33.3207
-33.5227
-33.7227
-33.9188
-34.1087
-34.2895
-34.4583
-34.6118
-34.7465
-34.8587
-34.9445
-35
-35.0208
-35.0029
-34.9418
-34.8335
-34.6736
-34.4581
-34.183
-33.8446
-33.4392
-32.9639
-32.4156
-31.7917
-31.09
-30.3088
-29.4467
-28.5026
-27.4762
-26.3673
-25.1766
-23.9051
-22.5545
-21.1269
-19.6253
-18.053
-16.414
-14.7126
-12.9541
-11.1435
-9.28679
-7.39001
-5.45953
-3.50278
-1.52657
0.464424
2.46346
4.46328
6.45859
8.44362
10.4129
12.3612
14.2838
16.1763
18.0346
19.855
21.6343
23.3697
25.0587
26.6992
28.2894
29.8274
31.3124
32.7409
34.116
35.422
36.6899
37.8202
39.0449
39.6937
-30.2178
-30.2514
-30.2815
-30.3087
-30.3337
-30.3574
-30.3826
-30.4117
-30.4463
-30.4874
-30.536
-30.5928
-30.6581
-30.7325
-30.8162
-30.9095
-31.0124
-31.125
-31.2473
-31.3792
-31.5204
-31.6707
-31.8296
-31.9969
-32.172
-32.3543
-32.5428
-32.7365
-32.9344
-33.1351
-33.3372
-33.5388
-33.7382
-33.9333
-34.1219
-34.3012
-34.468
-34.6192
-34.7513
-34.8606
-34.9433
-34.9954
-35.0129
-34.9914
-34.9268
-34.8148
-34.6514
-34.4324
-34.1539
-33.8121
-33.4037
-32.9254
-32.3744
-31.7481
-31.0443
-30.2611
-29.3974
-28.452
-27.4245
-26.3149
-25.1237
-23.8522
-22.5017
-21.0746
-19.5738
-18.0026
-16.3649
-14.6652
-12.9086
-11.1003
-9.24623
-7.35238
-5.42457
-3.47085
-1.49783
0.490004
2.48525
4.48114
6.47266
8.45396
10.4195
12.3643
14.2835
16.1728
18.028
19.8457
21.6225
23.3556
25.0426
26.6815
28.2703
29.8074
31.2916
32.7195
34.0938
35.3989
36.6642
37.791
39.0074
39.6443
-30.2422
-30.273
-30.3007
-30.3252
-30.3483
-30.371
-30.3957
-30.4244
-30.4584
-30.4988
-30.5465
-30.602
-30.6659
-30.7388
-30.821
-30.9128
-31.0145
-31.126
-31.2474
-31.3785
-31.5192
-31.6691
-31.828
-31.9952
-32.1703
-32.3521
-32.5399
-32.7327
-32.9292
-33.1281
-33.3281
-33.5276
-33.7247
-33.9174
-34.1031
-34.2791
-34.4424
-34.5898
-34.7179
-34.8231
-34.9017
-34.9497
-34.963
-34.9375
-34.869
-34.7533
-34.5862
-34.3638
-34.0821
-33.7374
-33.3264
-32.8458
-32.2928
-31.6647
-30.9594
-30.1752
-29.3107
-28.3649
-27.3374
-26.228
-25.0375
-23.7669
-22.4177
-20.9922
-19.4933
-17.9244
-16.2893
-14.5925
-12.839
-11.0343
-9.18429
-7.2943
-5.37022
-3.42093
-1.45214
0.531479
2.52178
4.51278
6.49959
8.47627
10.4374
12.3778
14.2929
16.1783
18.03
19.8443
21.6182
23.3488
25.0336
26.6707
28.2581
29.7942
31.2777
32.7052
34.0789
35.3833
36.6459
37.7701
38.9768
39.6068
-30.2694
-30.2968
-30.3207
-30.3415
-30.3618
-30.3828
-30.4062
-30.4336
-30.4663
-30.505
-30.5505
-30.6037
-30.6651
-30.7353
-30.8147
-30.9038
-31.0027
-31.1117
-31.2307
-31.3597
-31.4985
-31.6465
-31.8032
-31.9683
-32.1408
-32.3197
-32.5043
-32.6936
-32.8864
-33.0813
-33.2771
-33.4725
-33.6657
-33.8543
-34.0356
-34.2068
-34.3653
-34.5079
-34.6313
-34.7319
-34.806
-34.8497
-34.859
-34.8297
-34.7577
-34.6387
-34.4688
-34.2437
-33.9597
-33.6131
-33.2005
-32.7185
-32.1645
-31.5358
-30.8304
-30.0464
-29.1824
-28.2375
-27.2112
-26.1035
-24.915
-23.6468
-22.3002
-20.8777
-19.3821
-17.8168
-16.1856
-14.4931
-12.7443
-10.9446
-9.09981
-7.21468
-5.29585
-3.35231
-1.38876
0.589404
2.57365
4.55886
6.54
8.51118
10.467
12.4024
14.3127
16.1936
18.0411
19.8517
21.6223
23.3499
25.0323
26.6674
28.2534
29.7885
31.2714
32.6986
34.0719
35.3759
36.6359
37.7583
38.954
39.5826
-30.2959
-30.3196
-30.3385
-30.3553
-30.3726
-30.3916
-30.4132
-30.4387
-30.4692
-30.5053
-30.5474
-30.5968
-30.654
-30.7195
-30.7938
-30.8779
-30.9719
-31.0759
-31.1903
-31.3151
-31.4498
-31.5934
-31.7457
-31.9063
-32.0741
-32.2482
-32.4276
-32.6117
-32.7992
-32.9889
-33.1799
-33.3707
-33.5593
-33.7428
-33.919
-34.0853
-34.2389
-34.3769
-34.4958
-34.5924
-34.6627
-34.7029
-34.7091
-34.677
-34.6024
-34.4812
-34.3094
-34.0829
-33.7977
-33.4502
-33.037
-32.5549
-32.001
-31.3729
-30.6684
-29.8857
-29.0234
-28.0806
-27.0566
-25.9516
-24.7663
-23.5017
-22.1589
-20.7405
-19.2493
-17.6886
-16.0624
-14.3753
-12.6322
-10.8384
-8.99941
-7.12004
-5.20767
-3.27064
-1.31299
0.65874
2.63622
4.61502
6.58989
8.55499
10.505
12.4348
14.3399
16.2159
18.059
19.8656
21.6326
23.3572
25.0372
26.6703
28.255
29.7892
31.2717
32.699
34.0722
35.3762
36.634
37.7557
38.9392
39.5726
-30.3229
-30.3409
-30.3541
-30.367
-30.3814
-30.3986
-30.4183
-30.4409
-30.4681
-30.4998
-30.5359
-30.5786
-30.6284
-30.6856
-30.7518
-30.8283
-30.9156
-31.013
-31.1214
-31.241
-31.3706
-31.5088
-31.6552
-31.8098
-31.9717
-32.1397
-32.3127
-32.4905
-32.6725
-32.8574
-33.0438
-33.2299
-33.4132
-33.5916
-33.7628
-33.9244
-34.0737
-34.2076
-34.3229
-34.416
-34.4832
-34.5207
-34.5243
-34.4901
-34.4137
-34.2911
-34.1181
-33.8908
-33.6051
-33.2574
-32.8444
-32.3628
-31.8099
-31.1831
-30.4803
-29.6997
-28.84
-27.9001
-26.8794
-25.7779
-24.5966
-23.3363
-21.9981
-20.5846
-19.0989
-17.5437
-15.9235
-14.2427
-12.506
-10.7186
-8.88624
-7.01354
-5.10852
-3.17861
-1.22745
0.737041
2.70719
4.67906
6.64714
8.60568
10.5494
12.4733
14.3727
16.2436
18.082
19.8844
21.6477
23.3693
25.0468
26.6782
28.2617
29.7954
31.2779
32.7057
34.0793
35.3841
36.64
37.7622
38.9326
39.5775
-30.3525
-30.3573
-30.3669
-30.3767
-30.3889
-30.4051
-30.4223
-30.4401
-30.4613
-30.4847
-30.5102
-30.5423
-30.5821
-30.6298
-30.6875
-30.7576
-30.8393
-30.931
-31.0329
-31.146
-31.269
-31.4004
-31.5395
-31.6861
-31.8405
-32.0024
-32.1705
-32.3433
-32.5204
-32.7008
-32.8826
-33.0636
-33.2421
-33.4158
-33.5827
-33.7403
-33.8857
-34.016
-34.1279
-34.2178
-34.2822
-34.3172
-34.3186
-34.2823
-34.2043
-34.0803
-33.9063
-33.6781
-33.3921
-33.0444
-32.6317
-32.151
-31.5995
-30.9744
-30.2737
-29.4955
-28.6386
-27.7021
-26.685
-25.5877
-24.4108
-23.1552
-21.8222
-20.4143
-18.9345
-17.3857
-15.7722
-14.0982
-12.3683
-10.5882
-8.76319
-6.89791
-5.00095
-3.07863
-1.13457
0.8221
2.78457
4.74909
6.70999
8.6616
10.5987
12.5163
14.4099
16.2754
18.1089
19.907
21.6667
23.3853
25.0604
26.6902
28.2729
29.8065
31.2895
32.7185
34.0932
35.3995
36.6543
37.7785
38.9349
39.5981
-30.383
-30.3717
-30.3775
-30.3855
-30.3961
-30.4119
-30.4245
-30.4326
-30.4436
-30.4549
-30.4679
-30.4918
-30.5259
-30.5676
-30.6183
-30.6807
-30.7543
-30.8369
-30.9285
-31.0304
-31.1432
-31.2674
-31.4016
-31.5434
-31.6929
-31.8503
-32.0147
-32.1842
-32.3574
-32.5334
-32.7108
-32.8877
-33.0621
-33.2319
-33.3949
-33.5487
-33.6904
-33.8171
-33.9255
-34.0122
-34.0735
-34.1056
-34.1043
-34.0657
-33.9856
-33.8598
-33.6843
-33.455
-33.1682
-32.8205
-32.408
-31.9279
-31.3773
-30.7538
-30.055
-29.2792
-28.4251
-27.4918
-26.4786
-25.3856
-24.2133
-22.9627
-21.6356
-20.2337
-18.7602
-17.2183
-15.6117
-13.9448
-12.2223
-10.4499
-8.63268
-6.77543
-4.887
-2.97262
-1.0363
0.912075
2.8665
4.82331
6.77673
8.72115
10.6514
12.5625
14.4501
16.3101
18.1387
19.9325
21.6886
23.4043
25.0773
26.7058
28.288
29.822
31.3062
32.7371
34.1138
35.4227
36.6772
37.8051
38.9473
39.6349
-30.4134
-30.3882
-30.3867
-30.3939
-30.4027
-30.4165
-30.4189
-30.4132
-30.4178
-30.4256
-30.4314
-30.4473
-30.4713
-30.4984
-30.5315
-30.5743
-30.6319
-30.7052
-30.7918
-30.8889
-30.9971
-31.1182
-31.2509
-31.392
-31.5404
-31.6954
-31.8565
-32.0231
-32.1935
-32.3665
-32.5407
-32.7142
-32.8851
-33.0512
-33.2105
-33.3604
-33.4984
-33.6213
-33.7261
-33.8092
-33.867
-33.8956
-33.891
-33.8493
-33.7665
-33.6384
-33.4607
-33.2297
-32.9416
-32.5928
-32.18
-31.6999
-31.1498
-30.5271
-29.8298
-29.0561
-28.2046
-27.2745
-26.2652
-25.1766
-24.0088
-22.7631
-21.4417
-20.0461
-18.5791
-17.0441
-15.4448
-13.7856
-12.071
-10.3067
-8.49761
-6.64888
-4.76923
-2.86295
-0.934923
1.00486
2.95105
4.89988
6.84562
8.78269
10.7059
12.6105
14.492
16.3465
18.1702
19.9598
21.7124
23.4254
25.0967
26.7243
28.3065
29.8415
31.3277
32.7613
34.141
35.4538
36.7093
37.8425
38.9708
39.6883
-30.4516
-30.4051
-30.3889
-30.3945
-30.3982
-30.4136
-30.4179
-30.4084
-30.4057
-30.3984
-30.3733
-30.3536
-30.3439
-30.3512
-30.3759
-30.4127
-30.4666
-30.54
-30.6299
-30.7313
-30.8429
-30.9649
-31.0971
-31.238
-31.3862
-31.5406
-31.7008
-31.866
-32.0348
-32.2057
-32.3775
-32.5481
-32.7158
-32.8786
-33.0344
-33.1807
-33.315
-33.4341
-33.5351
-33.6145
-33.6684
-33.6931
-33.6848
-33.6395
-33.5531
-33.4218
-33.2412
-33.0076
-32.7174
-32.3669
-31.9529
-31.4722
-30.922
-30.2998
-29.6034
-28.8311
-27.9818
-27.0543
-26.0486
-24.9641
-23.8009
-22.5602
-21.2445
-19.8552
-18.3947
-16.8668
-15.275
-13.6237
-11.9173
-10.1613
-8.36057
-6.52073
-4.64996
-2.75185
-0.832499
1.09858
3.03651
4.97726
6.91519
8.8448
10.7609
12.6589
14.5343
16.3833
18.2022
19.9877
21.737
23.4477
25.1175
26.7448
28.3277
29.8645
31.3534
32.791
34.1749
35.4929
36.751
37.8914
39.0068
39.7589
-30.5102
-30.3915
-30.3612
-30.3862
-30.4101
-30.4398
-30.4204
-30.3555
-30.2863
-30.2254
-30.1696
-30.1342
-30.1169
-30.1287
-30.1674
-30.2204
-30.2849
-30.3639
-30.4577
-30.5637
-30.6804
-30.8063
-30.9413
-31.0844
-31.2336
-31.3888
-31.5492
-31.7142
-31.8822
-32.0519
-32.2218
-32.3902
-32.5553
-32.7153
-32.8681
-33.0112
-33.1421
-33.2577
-33.3548
-33.4301
-33.48
-33.5006
-33.4882
-33.4388
-33.3484
-33.213
-33.0288
-32.792
-32.4991
-32.1463
-31.7304
-31.2484
-30.6975
-30.0752
-29.3794
-28.6082
-27.7606
-26.8355
-25.8327
-24.7519
-23.5931
-22.3575
-21.0474
-19.6642
-18.2103
-16.6895
-15.1051
-13.4616
-11.7633
-10.0158
-8.22357
-6.39286
-4.53097
-2.64114
-0.730725
1.19156
3.1212
5.05379
6.98387
8.90597
10.815
12.7063
14.5757
16.4193
18.2335
20.0152
21.7615
23.4702
25.1391
26.7665
28.3508
29.8903
31.3831
32.8258
34.2154
35.5404
36.8028
37.9525
39.0567
39.847
-30.6
-30.4262
-30.3767
-30.4003
-30.3462
-30.2722
-30.1529
-30.0301
-29.9305
-29.8705
-29.8516
-29.8499
-29.8631
-29.8947
-29.947
-30.0145
-30.0906
-30.1798
-30.2825
-30.3961
-30.5189
-30.6498
-30.7885
-30.9343
-31.0858
-31.2426
-31.4039
-31.5691
-31.7367
-31.9056
-32.0741
-32.2406
-32.4036
-32.5614
-32.7117
-32.8521
-32.9799
-33.092
-33.1854
-33.2566
-33.3022
-33.3186
-33.3018
-33.248
-33.1534
-33.0139
-32.8259
-32.5856
-32.2894
-31.9338
-31.5156
-31.0318
-30.4797
-29.8567
-29.161
-28.3907
-27.5445
-26.6213
-25.621
-24.5435
-23.3887
-22.1579
-20.853
-19.4757
-18.0283
-16.5144
-14.9374
-13.3016
-11.6115
-9.87244
-8.08904
-6.26762
-4.41451
-2.5331
-0.631713
1.28179
3.20309
5.12754
7.04974
8.96436
10.8663
12.7512
14.6146
16.453
18.2627
20.0408
21.7845
23.4917
25.1602
26.7885
28.375
29.9181
31.416
32.8652
34.2622
35.596
36.865
38.0263
39.1216
39.9529
-30.8986
-30.3071
-30.1144
-30.0168
-29.8242
-29.6394
-29.5562
-29.5401
-29.5184
-29.5174
-29.5506
-29.5801
-29.6198
-29.6742
-29.7433
-29.8248
-29.9135
-30.0134
-30.125
-30.2453
-30.3732
-30.5079
-30.6495
-30.7973
-30.9505
-31.1085
-31.2699
-31.4346
-31.6015
-31.7696
-31.9367
-32.1013
-32.2624
-32.4182
-32.5663
-32.7042
-32.829
-32.9378
-33.0275
-33.0948
-33.1361
-33.1481
-33.1268
-33.0685
-32.9695
-32.826
-32.6341
-32.3901
-32.0904
-31.7318
-31.311
-30.8251
-30.2715
-29.6475
-28.9514
-28.1814
-27.3361
-26.4145
-25.4165
-24.3419
-23.1909
-21.9645
-20.6646
-19.293
-17.852
-16.3449
-14.7753
-13.1473
-11.4653
-9.73473
-7.96037
-6.14837
-4.30397
-2.43113
-0.538668
1.36618
3.27915
5.19549
7.1099
9.01714
10.9122
12.7907
14.6485
16.4819
18.2875
20.0624
21.804
23.5102
25.179
26.809
28.3987
29.9465
31.4509
32.9083
34.3145
35.6592
36.9371
38.1126
39.202
40.0756
-29.0799
-28.4694
-28.349
-28.3887
-28.5198
-28.6489
-28.8473
-29.0134
-29.0894
-29.1602
-29.2511
-29.3286
-29.4026
-29.4827
-29.5697
-29.6643
-29.7656
-29.8743
-29.9906
-30.1132
-30.2419
-30.377
-30.5183
-30.6654
-30.8178
-30.9742
-31.1335
-31.2958
-31.4605
-31.6263
-31.7909
-31.9529
-32.1112
-32.2641
-32.4089
-32.5428
-32.6632
-32.7671
-32.8515
-32.9132
-32.9487
-32.9546
-32.9273
-32.8629
-32.758
-32.6088
-32.4113
-32.1621
-31.8577
-31.4947
-31.07
-30.5808
-30.0244
-29.3985
-28.7011
-27.9305
-27.0856
-26.1652
-25.1692
-24.0976
-22.9506
-21.7292
-20.4351
-19.0702
-17.6368
-16.138
-14.5773
-12.9589
-11.2872
-9.56727
-7.80448
-6.00445
-4.17105
-2.30926
-0.427944
1.4661
3.36851
5.27461
7.17919
9.07716
10.9637
12.8343
14.6852
16.5128
18.3138
20.0853
21.8249
23.5309
25.2013
26.835
28.4305
29.9866
31.5019
32.9729
34.3944
35.7573
37.0513
38.2496
39.3384
40.265
-28.9548
-28.8552
-28.8762
-28.9482
-29.0311
-29.0573
-29.0846
-29.0912
-29.0691
-29.0704
-29.1024
-29.1417
-29.1903
-29.2548
-29.3348
-29.4292
-29.5356
-29.6517
-29.7764
-29.9091
-30.0491
-30.1954
-30.3472
-30.5032
-30.6618
-30.8226
-30.9852
-31.149
-31.313
-31.4766
-31.6391
-31.7996
-31.9552
-32.1031
-32.2413
-32.3679
-32.4804
-32.5762
-32.6523
-32.7057
-32.7331
-32.7309
-32.6956
-32.6234
-32.511
-32.3545
-32.1501
-31.8943
-31.5838
-31.2152
-30.7855
-30.2921
-29.7323
-29.1037
-28.4044
-27.6331
-26.7884
-25.8694
-24.876
-23.8082
-22.6664
-21.4513
-20.1647
-18.8082
-17.3844
-15.8961
-14.3469
-12.7407
-11.0821
-9.37582
-7.62768
-5.84278
-4.02369
-2.17609
-0.308479
1.5725
3.46212
5.35572
7.24829
9.13504
11.0112
12.8728
14.7158
16.537
18.3333
20.102
21.8408
23.5484
25.2231
26.8639
28.4698
30.04
31.5737
33.0669
34.5138
35.9062
37.2296
38.4634
39.5669
40.5514
-28.8369
-28.8723
-28.8396
-28.8261
-28.8454
-28.865
-28.903
-28.955
-29.0044
-29.0604
-29.1265
-29.1928
-29.2587
-29.3289
-29.4053
-29.488
-29.5756
-29.6693
-29.7705
-29.8796
-29.9963
-30.1203
-30.2511
-30.388
-30.5295
-30.6761
-30.8277
-30.9823
-31.1386
-31.2957
-31.4532
-31.6092
-31.7606
-31.9045
-32.039
-32.162
-32.2708
-32.3625
-32.4341
-32.4825
-32.5043
-32.4963
-32.455
-32.3767
-32.2579
-32.095
-31.8845
-31.6231
-31.3073
-30.9339
-30.5
-30.0033
-29.4411
-28.8108
-28.1108
-27.3398
-26.4968
-25.5809
-24.592
-23.5297
-22.3945
-21.1871
-19.9091
-18.5624
-17.1493
-15.6728
-14.1364
-12.5437
-10.8994
-9.20789
-7.47492
-5.70545
-3.90191
-2.0697
-0.216307
1.65161
3.52863
5.40992
7.29066
9.16638
11.0327
12.8858
14.7218
16.5376
18.3303
20.0978
21.838
23.5497
25.2315
26.8831
28.5033
30.0925
31.6497
33.1711
34.6514
36.0822
37.4462
38.7249
39.8588
40.8971
-28.7927
-28.8383
-28.8237
-28.8321
-28.8793
-28.9353
-28.992
-29.0485
-29.0947
-29.1352
-29.1798
-29.2286
-29.2814
-29.3409
-29.4096
-29.4877
-29.5746
-29.6708
-29.776
-29.8893
-30.0096
-30.1358
-30.267
-30.4023
-30.5405
-30.6812
-30.824
-30.9674
-31.1105
-31.2526
-31.3925
-31.5288
-31.6599
-31.7845
-31.9007
-32.0061
-32.0983
-32.1744
-32.2315
-32.2666
-32.2764
-32.2574
-32.2063
-32.1196
-31.9931
-31.8234
-31.6071
-31.3408
-31.0211
-30.6447
-30.2088
-29.7106
-29.1475
-28.5177
-27.8193
-27.051
-26.2114
-25.3001
-24.3166
-23.2609
-22.1334
-20.9349
-19.6669
-18.3314
-16.9307
-15.4676
-13.9454
-12.3678
-10.739
-9.06347
-7.34633
-5.59248
-3.8052
-1.98947
-0.151915
1.70104
3.56392
5.43192
7.30038
9.16495
11.0216
12.8666
14.6964
16.5079
18.2985
20.0666
21.8103
23.5285
25.2205
26.8861
28.5252
30.1379
31.723
33.2794
34.8024
36.2821
37.7001
39.035
40.2181
41.3032
-28.7437
-28.7939
-28.8113
-28.8356
-28.8791
-28.9263
-28.9703
-29.014
-29.0558
-29.0988
-29.1486
-29.2055
-29.2675
-29.3353
-29.4101
-29.4922
-29.5811
-29.6767
-29.7787
-29.8865
-29.9998
-30.118
-30.2406
-30.3671
-30.4968
-30.6292
-30.7637
-30.8995
-31.0355
-31.1706
-31.3038
-31.4337
-31.5587
-31.6769
-31.7861
-31.8837
-31.9672
-32.0338
-32.0808
-32.1051
-32.1038
-32.0734
-32.0108
-31.9125
-31.7749
-31.5946
-31.3684
-31.0929
-30.7649
-30.3814
-29.9395
-29.4362
-28.8695
-28.2376
-27.5385
-26.7708
-25.9332
-25.0251
-24.0463
-22.9967
-21.8768
-20.6875
-19.4302
-18.1067
-16.7192
-15.2704
-13.7635
-12.202
-10.5898
-8.93131
-7.23112
-5.49394
-3.72367
-1.92522
-0.104768
1.73177
3.5793
5.43318
7.28894
9.1423
10.9895
12.8268
14.6509
16.4591
18.2491
20.0192
21.7681
23.4948
25.1993
26.8819
28.5434
30.1839
31.803
33.4008
34.974
36.513