/*--------------------------------*- C++ -*----------------------------------*\
| =========                 |                                                 |
| \\      /  F ield         | OpenFOAM: The Open Source CFD Toolbox           |
|  \\    /   O peration     | Version:  5.x                                   |
|   \\  /    A nd           | Web:      www.OpenFOAM.org                      |
|    \\/     M anipulation  |                                                 |
\*---------------------------------------------------------------------------*/
FoamFile
{
    version     2.0;
    format      ascii;
    class       volScalarField;
    location    "151";
    object      epsilon;
}
// * * * * * * * * * * * * * * * * * * * * * * * * * * * * * * * * * * * * * //

dimensions      [0 2 -3 0 0 0 0];

internalField   nonuniform List<scalar> 
5760
(
134.093
93.3555
66.6703
49.8201
39.0827
32.184
27.6472
24.5336
22.2811
20.5674
19.2106
18.0982
17.1792
16.3747
15.7415
15.086
14.7095
14.2495
41.6472
41.699
35.8852
28.3658
23.1334
19.4907
16.9272
15.0811
13.7079
12.6507
11.8126
11.1277
10.5619
10.0711
9.66165
9.27306
8.92389
8.63921
22.98
25.6552
24.178
20.92
17.8202
15.3795
13.5054
12.0665
10.947
10.0593
9.34222
8.75074
8.2571
7.83355
7.4714
7.14745
6.84885
6.59984
17.3643
18.9581
18.4622
16.9621
15.0248
13.313
11.882
10.7103
9.75383
8.96855
8.31782
7.77201
7.30981
6.91228
6.56819
6.26488
5.99065
5.75355
15.2993
15.7389
15.3832
14.4638
13.1926
11.9588
10.8518
9.8933
9.07566
8.38092
7.78964
7.28371
6.84827
6.47023
6.13983
5.84836
5.58756
5.35779
14.4921
14.1442
13.6079
12.8474
11.9226
10.9847
10.1052
9.31261
8.61268
8.00039
7.46655
7.0008
6.59342
6.23552
5.91962
5.63924
5.38855
5.16518
14.1835
13.3319
12.5914
11.8383
11.0529
10.2771
9.54384
8.87069
8.26358
7.72154
7.24008
6.81315
6.43445
6.09785
5.79785
5.52958
5.28869
5.07221
14.0736
12.9355
12.0264
11.2243
10.4775
9.77756
9.12819
8.53292
7.99251
7.50516
7.06739
6.67488
6.32303
6.00735
5.72365
5.46812
5.23738
5.02859
14.0394
12.7609
11.7404
10.8822
10.1293
9.45435
8.84425
8.29215
7.79315
7.34284
6.9369
6.57106
6.24124
5.94358
5.67455
5.43094
5.2099
5.00887
14.0285
12.6776
11.5818
10.6718
9.89661
9.22283
8.62892
8.10076
7.62848
7.20466
6.82334
6.47952
6.16892
5.88777
5.63276
5.40099
5.18991
4.99721
14.0261
12.6461
11.5096
10.5622
9.76167
9.07594
8.48147
7.96088
7.5012
7.09259
6.72739
6.39949
6.10394
5.83661
5.59407
5.3734
5.1721
4.98798
14.0258
12.6384
11.4884
10.5249
9.70954
9.01283
8.412
7.88941
7.43134
7.02701
6.6679
6.34717
6.0593
5.79978
5.56488
5.3515
5.15703
4.97927
14.0257
12.6375
11.4854
10.5189
9.70029
9.00046
8.39709
7.87277
7.41381
7.00938
6.65081
6.33115
6.04472
5.7869
5.55387
5.34243
5.14992
4.9741
14.0259
12.6427
11.4994
10.5436
9.73513
9.04345
8.44559
7.92407
7.4655
7.05951
6.69791
6.37416
6.08299
5.82003
5.5817
5.36498
5.16731
4.98654
14.0307
12.6866
11.5935
10.683
9.90662
9.23264
8.63997
8.11421
7.64496
7.22429
6.8459
6.50458
6.19592
5.91616
5.66201
5.43065
5.21959
5.02662
14.0802
12.9316
12.0047
11.1951
10.456
9.77439
9.14731
8.57363
8.05158
7.57837
7.15049
6.76407
6.41517
6.09999
5.81498
5.55687
5.32274
5.10986
14.4149
13.9001
13.2974
12.5738
11.7606
10.9401
10.1577
9.43506
8.77988
8.19201
7.66738
7.20031
6.78462
6.41436
6.08401
5.78861
5.52386
5.28555
16.0811
16.9343
16.6106
15.6812
14.3826
13.1135
11.9514
10.9206
10.0203
9.23892
8.56189
7.97472
7.46415
7.01873
6.62858
6.2855
5.98276
5.71338
23.5641
25.8546
24.6498
22.1349
19.5903
17.3574
15.4631
13.8794
12.5596
11.457
10.5316
9.75058
9.08706
8.52015
8.03223
7.61039
7.24353
6.92066
64.8978
53.7491
45.2721
38.57
33.2223
28.9353
25.4841
22.6883
20.4047
18.5233
16.9597
15.6497
14.5428
13.6018
12.7933
12.0987
11.4903
10.9649
0.00157242
0.00543798
0.0112739
0.0162357
0.0208071
0.0258414
0.0315277
0.0380743
0.045582
0.0542154
0.0643753
0.0766641
0.0917052
0.110194
0.132669
0.159226
0.189833
0.224304
0.26229
0.303334
0.347033
0.393032
0.441014
0.49069
0.541792
0.594063
0.647239
0.701048
0.755197
0.809368
0.863218
0.916384
0.968525
1.01944
1.06936
1.11733
1.16308
1.20633
1.24678
1.28415
1.31819
1.34868
1.37546
1.3984
1.41741
1.43242
1.44248
1.44858
1.45249
1.45195
1.44769
1.43995
1.42897
1.41498
1.39824
1.37898
1.35747
1.33397
1.30871
1.28195
1.25394
1.2249
1.19499
1.1644
1.13335
1.10201
1.07053
1.03905
1.00771
0.976616
0.945868
0.915559
0.88577
0.856567
0.828004
0.800128
0.77298
0.746589
0.720983
0.696178
0.672188
0.64903
0.626712
0.60522
0.584551
0.564699
0.545653
0.527393
0.509898
0.493145
0.477113
0.461771
0.447109
0.433005
0.419674
0.406442
0.394832
0.38045
0.371616
0.332579
0.008449
0.00687518
0.00884594
0.0118852
0.015748
0.02062
0.0266274
0.0338989
0.0425447
0.0526718
0.0643721
0.0777058
0.0928586
0.109715
0.127786
0.147043
0.167272
0.188051
0.209264
0.230854
0.252832
0.275237
0.298106
0.32146
0.3453
0.369599
0.394301
0.419326
0.444571
0.469911
0.495208
0.520326
0.545168
0.56976
0.59451
0.618628
0.641654
0.663415
0.683719
0.702391
0.719274
0.734234
0.747158
0.757961
0.76657
0.772901
0.776775
0.778507
0.778691
0.77666
0.772606
0.766707
0.759105
0.749945
0.739378
0.727556
0.71463
0.700752
0.686067
0.670721
0.654859
0.6386
0.622032
0.605255
0.588373
0.571477
0.554647
0.537957
0.52147
0.505237
0.489307
0.473719
0.458513
0.443717
0.429355
0.415444
0.402001
0.389034
0.376553
0.36456
0.35306
0.342052
0.331536
0.321504
0.311954
0.302877
0.294267
0.286113
0.278405
0.271129
0.264277
0.257834
0.251809
0.246149
0.240996
0.23618
0.232333
0.228528
0.227324
0.228408
0.020121
0.0127041
0.01377
0.0168783
0.0213654
0.027255
0.0345435
0.0431556
0.0529767
0.0638974
0.0758315
0.0886865
0.102227
0.116332
0.13107
0.146234
0.161571
0.17744
0.193812
0.210725
0.228215
0.2463
0.264984
0.284253
0.304075
0.324406
0.345187
0.366345
0.387794
0.409437
0.43117
0.45289
0.474514
0.495991
0.517217
0.537777
0.557414
0.575937
0.593162
0.608918
0.623053
0.635436
0.645961
0.65455
0.661142
0.665675
0.667949
0.668536
0.667445
0.664455
0.659719
0.653381
0.645579
0.636453
0.626148
0.614807
0.602574
0.589585
0.575975
0.561872
0.547397
0.532659
0.517745
0.502738
0.487718
0.472757
0.457919
0.443266
0.428844
0.414689
0.400835
0.387312
0.374146
0.361356
0.348959
0.336966
0.325384
0.31422
0.303475
0.29315
0.283246
0.273759
0.264684
0.256014
0.247745
0.23987
0.23238
0.225268
0.218524
0.212138
0.206104
0.20041
0.195064
0.190038
0.185407
0.181073
0.177381
0.174053
0.172221
0.173957
0.0355638
0.0197671
0.0199465
0.0232921
0.0284328
0.0351358
0.0432368
0.0524944
0.0626383
0.073441
0.0847498
0.096475
0.108566
0.121047
0.133986
0.147391
0.161437
0.175979
0.191193
0.207104
0.223724
0.241054
0.259083
0.277791
0.297145
0.317103
0.337611
0.3586
0.379987
0.401675
0.423552
0.445497
0.467393
0.489105
0.510398
0.530985
0.550628
0.569117
0.58625
0.601845
0.615737
0.627791
0.637897
0.645979
0.651996
0.655775
0.657345
0.657253
0.655227
0.651326
0.645677
0.638424
0.629715
0.619702
0.60854
0.596382
0.583378
0.569674
0.555406
0.540704
0.525691
0.510474
0.495147
0.47979
0.464482
0.449291
0.434275
0.419475
0.404934
0.390702
0.37681
0.363283
0.350141
0.337398
0.325066
0.313152
0.30166
0.290592
0.279947
0.269722
0.259915
0.25052
0.241527
0.232928
0.224717
0.216885
0.209422
0.20232
0.195569
0.189159
0.183082
0.177329
0.171903
0.166788
0.162026
0.157574
0.153612
0.150135
0.147518
0.148092
0.0536636
0.0275834
0.0264743
0.0297613
0.0351399
0.0420925
0.0503194
0.0594967
0.0693174
0.0795631
0.0901297
0.101008
0.112248
0.123942
0.136182
0.14904
0.162584
0.176937
0.192106
0.208096
0.22492
0.242587
0.261095
0.280434
0.300579
0.321494
0.343125
0.3654
0.388228
0.411497
0.43506
0.458757
0.482392
0.505744
0.528579
0.550625
0.571625
0.591339
0.609537
0.626014
0.640589
0.653111
0.663467
0.67158
0.677413
0.680731
0.681849
0.68099
0.678014
0.673044
0.666223
0.65771
0.647671
0.63628
0.62371
0.610133
0.595714
0.580611
0.564973
0.548941
0.532641
0.516187
0.499679
0.483203
0.466837
0.45065
0.434701
0.419042
0.40371
0.388741
0.374161
0.359993
0.346253
0.332953
0.320101
0.3077
0.295754
0.284259
0.273214
0.262612
0.252442
0.242696
0.23337
0.224454
0.215938
0.207811
0.200064
0.192685
0.185664
0.178989
0.17265
0.16664
0.160957
0.155591
0.150566
0.145871
0.141595
0.137856
0.13465
0.134139
0.0717141
0.0352601
0.032701
0.0356374
0.0408931
0.0476781
0.0556049
0.0643377
0.0736023
0.0832357
0.0931937
0.103521
0.114312
0.125675
0.137714
0.150518
0.164166
0.178734
0.194248
0.210758
0.228296
0.246879
0.266513
0.28719
0.308887
0.33156
0.355144
0.379549
0.404656
0.430315
0.456354
0.482566
0.50871
0.534519
0.559709
0.58398
0.607042
0.628615
0.64844
0.666284
0.681947
0.695268
0.706129
0.714456
0.720208
0.723155
0.723787
0.722079
0.718054
0.711864
0.703675
0.693669
0.68204
0.668982
0.654694
0.639368
0.623187
0.606328
0.588953
0.571214
0.553248
0.535177
0.517107
0.499129
0.481326
0.463767
0.446514
0.429615
0.413112
0.397037
0.381414
0.366263
0.351598
0.337429
0.323759
0.31059
0.297921
0.285748
0.274064
0.262861
0.25213
0.24186
0.232037
0.222649
0.213685
0.205133
0.196978
0.189206
0.181805
0.174766
0.168079
0.161735
0.15573
0.150055
0.144725
0.139744
0.135155
0.131117
0.1275
0.126013
0.0880278
0.0421958
0.0381505
0.0405382
0.0454346
0.0518159
0.0592458
0.0674128
0.0760977
0.0851927
0.0946974
0.104683
0.115257
0.126531
0.138612
0.151595
0.165572
0.180621
0.196805
0.214182
0.232798
0.252688
0.273869
0.296338
0.320073
0.345024
0.371111
0.39822
0.4262
0.454863
0.483987
0.513307
0.54253
0.571334
0.599379
0.626324
0.651832
0.675585
0.697291
0.716691
0.733571
0.747761
0.759146
0.767666
0.773243
0.775777
0.775751
0.773043
0.767804
0.760211
0.750458
0.738756
0.725325
0.710388
0.694165
0.676872
0.658713
0.63988
0.620552
0.600892
0.581047
0.561148
0.541307
0.521623
0.50218
0.483051
0.464299
0.445972
0.428112
0.410749
0.393907
0.377605
0.361852
0.346656
0.332019
0.317938
0.304411
0.291429
0.278984
0.267065
0.255661
0.244755
0.234334
0.224383
0.214887
0.205831
0.1972
0.18898
0.181156
0.173716
0.166648
0.159941
0.153585
0.147578
0.141927
0.136644
0.131746
0.127399
0.123449
0.121157
0.10148
0.0479836
0.0425328
0.0442779
0.0486964
0.0545782
0.0614604
0.0690663
0.0772299
0.0858808
0.0950548
0.104839
0.115342
0.126678
0.138956
0.152266
0.166732
0.182456
0.199527
0.218023
0.238012
0.259544
0.282649
0.307329
0.333558
0.361273
0.390371
0.420703
0.452075
0.484247
0.516934
0.549808
0.58251
0.614654
0.645844
0.675681
0.703786
0.7298
0.753404
0.774319
0.792322
0.807245
0.818982
0.827489
0.832683
0.83465
0.833675
0.829752
0.823083
0.81388
0.802363
0.788776
0.773368
0.756386
0.738078
0.718677
0.698407
0.677477
0.656078
0.634385
0.612556
0.590727
0.569018
0.547532
0.526357
0.505568
0.485227
0.465386
0.446083
0.42735
0.40921
0.391676
0.374759
0.358463
0.342787
0.327727
0.313276
0.299424
0.28616
0.27347
0.261338
0.249749
0.238685
0.228127
0.21806
0.208465
0.199327
0.190629
0.182354
0.174489
0.167019
0.159933
0.153222
0.146881
0.140909
0.135321
0.130123
0.125468
0.121219
0.11827
0.111488
0.0524112
0.0457276
0.046823
0.0507315
0.0561057
0.0624691
0.0695697
0.0773096
0.0856885
0.0946973
0.104408
0.114934
0.1264
0.138943
0.152705
0.167822
0.184422
0.202619
0.222518
0.244208
0.267756
0.293201
0.320545
0.349752
0.380733
0.413349
0.447403
0.482641
0.518755
0.555384
0.592125
0.628545
0.664188
0.698594
0.731315
0.761925
0.790037
0.815311
0.837464
0.856274
0.871586
0.883314
0.89144
0.895938
0.89698
0.894745
0.889318
0.88096
0.869917
0.856438
0.840797
0.823269
0.804127
0.783638
0.762054
0.739615
0.716543
0.69304
0.669291
0.645458
0.621687
0.5981
0.574804
0.551889
0.529433
0.507497
0.486133
0.465379
0.445265
0.425813
0.407036
0.388941
0.37153
0.354801
0.338745
0.323355
0.308618
0.294518
0.281042
0.26817
0.255883
0.244161
0.232985
0.222336
0.212194
0.202541
0.193357
0.184626
0.176332
0.168459
0.160994
0.153927
0.14725
0.140962
0.135076
0.129591
0.124638
0.120109
0.116619
0.117971
0.055446
0.0477527
0.048248
0.0516681
0.0565694
0.0624979
0.0692838
0.0767661
0.0848957
0.093751
0.103444
0.114103
0.125873
0.138905
0.153302
0.169285
0.187037
0.206692
0.22838
0.25221
0.278262
0.306577
0.337145
0.369903
0.40472
0.441401
0.479678
0.519218
0.559626
0.600451
0.641206
0.681375
0.720434
0.757865
0.793173
0.825906
0.85566
0.882095
0.904937
0.923988
0.939122
0.950288
0.957505
0.96084
0.960476
0.956623
0.949327
0.938996
0.925876
0.910248
0.892411
0.872663
0.851297
0.828594
0.804823
0.780231
0.755051
0.729492
0.703743
0.677971
0.652325
0.62693
0.601894
0.577309
0.553251
0.529783
0.506955
0.484804
0.463361
0.442644
0.422665
0.403429
0.384937
0.367184
0.350161
0.333855
0.318254
0.303339
0.289092
0.275495
0.262524
0.250157
0.238375
0.227154
0.216475
0.206316
0.196658
0.187481
0.178768
0.170501
0.162668
0.155254
0.148254
0.14166
0.135486
0.129726
0.12449
0.119697
0.115756
0.121086
0.0571721
0.048711
0.0486859
0.0516874
0.0562883
0.0619358
0.0683821
0.0755967
0.0836093
0.0924939
0.102365
0.113367
0.125668
0.139368
0.154718
0.171948
0.191295
0.212924
0.236986
0.263603
0.292856
0.324768
0.359297
0.396323
0.435646
0.476984
0.51997
0.564168
0.609076
0.654145
0.698796
0.742439
0.784488
0.824383
0.86161
0.895709
0.926289
0.953034
0.975708
0.994156
1.00831
1.01815
1.02378
1.02532
1.02307
1.01705
1.00753
0.994935
0.979513
0.961577
0.941444
0.91943
0.895839
0.870962
0.845073
0.818425
0.791253
0.763766
0.736156
0.708591
0.681217
0.65416
0.627528
0.601412
0.575887
0.551014
0.526842
0.503408
0.48074
0.458855
0.437765
0.417472
0.397976
0.37927
0.361342
0.34418
0.327768
0.312086
0.297115
0.282832
0.269214
0.256238
0.24388
0.232117
0.220928
0.210289
0.20018
0.19058
0.181469
0.17283
0.164647
0.156906
0.149599
0.142716
0.13627
0.130252
0.124752
0.119709
0.115388
0.12077
0.0576086
0.0487115
0.0484323
0.0511645
0.0554196
0.0607619
0.0670375
0.0742058
0.0823103
0.0914475
0.101778
0.113421
0.126482
0.1413
0.15816
0.177305
0.198997
0.223441
0.250804
0.281199
0.314678
0.351211
0.390678
0.43286
0.477443
0.524017
0.572088
0.621091
0.67041
0.719395
0.76739
0.813751
0.857862
0.899157
0.937135
0.971372
1.00153
1.02734
1.04864
1.06535
1.07747
1.08505
1.08823
1.08733
1.08254
1.07381
1.06172
1.04658
1.02866
1.00831
0.985843
0.961588
0.935851
0.908921
0.881069
0.852546
0.823581
0.79438
0.76513
0.735995
0.707117
0.678619
0.650605
0.623164
0.596369
0.570279
0.54494
0.520389
0.496652
0.473745
0.451678
0.430453
0.410067
0.390514
0.37178
0.353851
0.33671
0.320337
0.30471
0.289805
0.275598
0.262065
0.249181
0.236923
0.225266
0.214187
0.203663
0.193673
0.184197
0.175215
0.16671
0.158668
0.151077
0.143929
0.137232
0.130975
0.125233
0.119956
0.115314
0.118997
0.0573625
0.0482396
0.0476511
0.0500681
0.0541299
0.0593909
0.0657139
0.073093
0.0816286
0.0913999
0.102476
0.115152
0.129751
0.146576
0.165939
0.188137
0.213456
0.242116
0.274265
0.309961
0.349159
0.391706
0.437334
0.485661
0.536201
0.588379
0.64155
0.695019
0.748067
0.799976
0.850054
0.897653
0.942187
0.983138
1.02007
1.05265
1.08064
1.10385
1.12224
1.1358
1.14463
1.14884
1.14869
1.14468
1.13646
1.12466
1.10964
1.09173
1.07121
1.04841
1.02366
0.99728
0.969566
0.940796
0.911228
0.8811
0.850629
0.820012
0.789423
0.759017
0.728931
0.69928
0.670164
0.641667
0.613858
0.586792
0.560514
0.535061
0.510456
0.486714
0.463845
0.441849
0.420723
0.40046
0.381047
0.362469
0.344708
0.327742
0.31155
0.296107
0.281388
0.267369
0.254025
0.241331
0.229262
0.217794
0.206904
0.196569
0.186768
0.177481
0.16869
0.160378
0.152535
0.14515
0.138227
0.131755
0.125794
0.120305
0.11539
0.115196
0.0564735
0.0472018
0.0464551
0.048775
0.0528569
0.0583057
0.0650595
0.0730977
0.0824091
0.0932868
0.106046
0.120993
0.138504
0.158938
0.182646
0.209942
0.241082
0.27627
0.315548
0.358789
0.405729
0.455975
0.509014
0.564231
0.620931
0.678367
0.735764
0.792348
0.847362
0.900099
0.949916
0.996252
1.03863
1.07666
1.11004
1.13857
1.16216
1.18072
1.19437
1.20317
1.20735
1.20701
1.20288
1.19451
1.18253
1.16726
1.14905
1.12827
1.10512
1.07995
1.05308
1.0248
0.995388
0.965093
0.93415
0.902778
0.871173
0.839514
0.807961
0.776656
0.745722
0.715269
0.685387
0.656154
0.627636
0.599885
0.57294
0.546841
0.521608
0.497255
0.473791
0.451218
0.429532
0.408725
0.388786
0.369699
0.351447
0.334009
0.317362
0.301483
0.286346
0.271928
0.258203
0.245147
0.232734
0.22094
0.209742
0.199115
0.189038
0.179492
0.170456
0.161914
0.153854
0.146263
0.139144
0.132484
0.126333
0.120654
0.115511
0.109723
0.054776
0.0457816
0.04512
0.0476292
0.0521657
0.058332
0.0659624
0.0753036
0.0866706
0.100395
0.116914
0.136658
0.160069
0.187549
0.219421
0.255898
0.297006
0.342717
0.392898
0.446926
0.504106
0.563674
0.624803
0.686639
0.748327
0.809038
0.867994
0.92448
0.977851
1.02755
1.07313
1.11422
1.15058
1.182
1.20837
1.22969
1.24606
1.25744
1.26419
1.26634
1.26443
1.25854
1.24876
1.23563
1.21934
1.20023
1.17863
1.15473
1.12887
1.10141
1.07261
1.04271
1.01195
0.980522
0.948638
0.916477
0.884205
0.851973
0.819921
0.78817
0.756829
0.725995
0.695749
0.666163
0.637295
0.609195
0.581897
0.555433
0.529831
0.505108
0.481274
0.45833
0.436276
0.415104
0.394803
0.37536
0.356757
0.338974
0.321991
0.305785
0.290331
0.275607
0.261588
0.248249
0.235566
0.223513
0.212068
0.201208
0.190909
0.181151
0.171916
0.163186
0.154946
0.147186
0.139904
0.133085
0.126772
0.120929
0.115599
0.103687
0.052747
0.0443883
0.0442657
0.0475934
0.0530949
0.0607613
0.0708875
0.0838731
0.100306
0.120777
0.1459
0.176208
0.212088
0.253738
0.301092
0.353891
0.411575
0.473533
0.538328
0.604943
0.672339
0.739507
0.805515
0.869531
0.930827
0.988781
1.0429
1.09278
1.13807
1.17855
1.21406
1.24454
1.27007
1.2906
1.3062
1.31709
1.32361
1.3255
1.32367
1.31808
1.30876
1.29624
1.28067
1.26215
1.24117
1.2181
1.19318
1.16663
1.13879
1.10976
1.07973
1.04888
1.0174
0.985455
0.953209
0.920811
0.888401
0.856107
0.824044
0.792318
0.761022
0.730242
0.70005
0.670509
0.641674
0.613595
0.586316
0.559852
0.534225
0.509451
0.485543
0.462504
0.440334
0.41903
0.398583
0.378981
0.360208
0.342249
0.325084
0.308693
0.293053
0.278142
0.263939
0.250419
0.237558
0.225333
0.213721
0.202699
0.192246
0.182339
0.172961
0.164093
0.155722
0.147834
0.140427
0.133486
0.127044
0.121068
0.115589
0.0982449
0.0508413
0.0435418
0.0445945
0.0493647
0.0574161
0.0690783
0.0851915
0.106746
0.134809
0.170275
0.213722
0.265262
0.324427
0.390365
0.4617
0.537305
0.615007
0.692635
0.768884
0.84265
0.913075
0.979466
1.0413
1.09824
1.15006
1.1966
1.23792
1.27402
1.30489
1.33067
1.35149
1.3675
1.37919
1.38641
1.38936
1.3885
1.38449
1.37652
1.36571
1.35203
1.33541
1.31631
1.29513
1.27225
1.24784
1.22197
1.1948
1.16645
1.13712
1.10699
1.07619
1.04486
1.01314
0.98116
0.949032
0.916873
0.88479
0.852884
0.821248
0.789968
0.759124
0.728786
0.699018
0.669876
0.64141
0.613663
0.586667
0.560452
0.535041
0.510451
0.486694
0.463775
0.441698
0.420459
0.400052
0.380469
0.361696
0.34372
0.326524
0.31009
0.294398
0.279428
0.265157
0.251564
0.238626
0.226321
0.214626
0.203521
0.192984
0.182994
0.173532
0.164582
0.15613
0.14816
0.140671
0.133645
0.127111
0.121033
0.11544
0.0937021
0.0492559
0.0438576
0.0470788
0.0557051
0.0701158
0.0918577
0.123088
0.165859
0.221528
0.290178
0.370507
0.460211
0.555806
0.654751
0.75319
0.847577
0.936228
1.01801
1.09237
1.1591
1.21846
1.27059
1.31577
1.35441
1.38692
1.41359
1.43509
1.45167
1.46348
1.47096
1.47436
1.47391
1.47068
1.46377
1.45389
1.44139
1.42664
1.40945
1.38988
1.3685
1.34567
1.32167
1.29643
1.27001
1.24261
1.21435
1.18534
1.15566
1.12542
1.09473
1.06367
1.03235
1.00085
0.969254
0.937641
0.906097
0.874698
0.843521
0.812639
0.782119
0.752025
0.722419
0.693354
0.664879
0.63704
0.609874
0.583415
0.55769
0.532723
0.508532
0.485129
0.462523
0.440719
0.419716
0.399511
0.380098
0.361469
0.34361
0.326508
0.310147
0.29451
0.27958
0.265336
0.251759
0.238827
0.22652
0.214816
0.203695
0.193137
0.183123
0.173633
0.16465
0.156161
0.148152
0.140617
0.13354
0.126945
0.120796
0.115122
0.0900975
0.0486506
0.0464111
0.0553521
0.0741213
0.106111
0.156011
0.22816
0.32384
0.440234
0.571351
0.708866
0.84735
0.978491
1.09698
1.20126
1.29125
1.3674
1.4306
1.48216
1.52312
1.55554
1.58001
1.59745
1.60892
1.61519
1.61658
1.61458
1.60906
1.60003
1.5883
1.5741
1.55766
1.53948
1.51949
1.49785
1.47475
1.45014
1.42442
1.3981
1.37115
1.34348
1.31521
1.28643
1.25719
1.22756
1.19762
1.16739
1.13692
1.10626
1.07545
1.04454
1.01358
0.982614
0.95169
0.920861
0.890179
0.859698
0.829471
0.799552
0.769995
0.74085
0.712167
0.683991
0.656366
0.62933
0.60292
0.577167
0.552098
0.527736
0.504098
0.4812
0.459052
0.437661
0.417029
0.397155
0.378037
0.359668
0.342039
0.325138
0.308953
0.293469
0.27867
0.264539
0.251057
0.238206
0.225967
0.214319
0.203243
0.192721
0.182734
0.173264
0.164294
0.15581
0.147798
0.140253
0.133158
0.126532
0.12034
0.114612
0.087207
0.0499988
0.0558998
0.0812397
0.131697
0.219284
0.351285
0.52513
0.726883
0.936232
1.13985
1.32082
1.47212
1.59476
1.69043
1.76187
1.81417
1.84979
1.87137
1.88191
1.88272
1.87824
1.86746
1.85182
1.83277
1.81094
1.78676
1.76098
1.73388
1.70552
1.67624
1.64625
1.61571
1.58478
1.55333
1.52137
1.48924
1.45745
1.42573
1.394
1.36233
1.33074
1.29925
1.26787
1.23661
1.20546
1.17443
1.14352
1.1127
1.08199
1.05138
1.02088
0.990504
0.960268
0.930191
0.900297
0.870614
0.841176
0.812018
0.783178
0.754694
0.726606
0.698954
0.671777
0.64511
0.618988
0.593444
0.568508
0.544203
0.520554
0.497579
0.475294
0.453709
0.432835
0.412675
0.393232
0.374505
0.356489
0.339179
0.322566
0.306639
0.291386
0.276793
0.262846
0.249527
0.236821
0.224709
0.213173
0.202196
0.19176
0.181846
0.172439
0.163522
0.155081
0.147102
0.139579
0.132495
0.125866
0.119659
0.113902
0.0869856
0.0578194
0.0903748
0.175303
0.338733
0.593363
0.911847
1.24496
1.55692
1.81416
2.00886
2.14817
2.24224
2.29984
2.32784
2.33198
2.32326
2.30153
2.26996
2.23257
2.19064
2.1466
2.10083
2.054
2.00687
1.95983
1.91312
1.86705
1.82183
1.77738
1.73373
1.69093
1.64876
1.60747
1.5671
1.52797
1.48974
1.45232
1.41573
1.37989
1.3448
1.31039
1.27663
1.24348
1.21088
1.17879
1.14716
1.11594
1.08509
1.05457
1.02436
0.994432
0.964767
0.935358
0.9062
0.877299
0.848664
0.820311
0.792258
0.764532
0.737158
0.710167
0.683589
0.657455
0.631796
0.606642
0.582021
0.557962
0.534486
0.511617
0.489374
0.467771
0.446822
0.426537
0.406922
0.387981
0.369716
0.352124
0.335202
0.318943
0.303339
0.28838
0.274054
0.260349
0.247249
0.23474
0.222806
0.21143
0.200597
0.190289
0.18049
0.171183
0.162354
0.153989
0.146074
0.138601
0.131556
0.124949
0.118753
0.112987
0.0904957
0.0946953
0.240166
0.562914
1.05623
1.60986
2.11846
2.49947
2.74897
2.90317
2.97985
2.99765
2.98289
2.94282
2.88279
2.81194
2.73623
2.65733
2.57686
2.49674
2.41774
2.3409
2.26648
2.19458
2.12532
2.05872
1.99473
1.93333
1.87437
1.81764
1.76313
1.71077
1.6606
1.61255
1.56633
1.52179
1.47888
1.43748
1.3975
1.35884
1.32142
1.28513
1.24989
1.21561
1.18221
1.1496
1.11771
1.08646
1.05578
1.02561
0.995903
0.966607
0.937689
0.909121
0.880883
0.852963
0.825356
0.798063
0.771094
0.744459
0.718177
0.692268
0.666754
0.641661
0.617013
0.592837
0.569156
0.545994
0.523375
0.501318
0.479842
0.458962
0.438692
0.419042
0.40002
0.381631
0.363877
0.34676
0.330276
0.314421
0.29919
0.284573
0.270561
0.257143
0.244307
0.232039
0.220324
0.209149
0.198497
0.188353
0.178703
0.16953
0.160819
0.152559
0.144734
0.137338
0.130356
0.123793
0.117631
0.111875
0.125563
0.294538
0.931312
1.89269
2.7987
3.41792
3.76201
3.91591
3.93019
3.88948
3.79613
3.67458
3.54399
3.41006
3.27524
3.14278
3.01515
2.8929
2.77618
2.66524
2.55995
2.46031
2.36604
2.27681
2.19234
2.11234
2.03656
1.96475
1.89661
1.83211
1.77092
1.71274
1.65733
1.60454
1.55419
1.50611
1.46015
1.41616
1.374
1.33354
1.29465
1.2572
1.22107
1.18615
1.15233
1.11951
1.08759
1.05647
1.02607
0.996313
0.967132
0.93847
0.910275
0.882509
0.855137
0.828138
0.801493
0.775195
0.749242
0.723637
0.698389
0.67351
0.649017
0.624927
0.60126
0.578038
0.555281
0.533011
0.511246
0.490006
0.469308
0.449166
0.429594
0.410603
0.3922
0.374392
0.357182
0.340572
0.324561
0.309146
0.294322
0.280084
0.266422
0.253328
0.24079
0.228796
0.217334
0.206391
0.195951
0.186002
0.176528
0.167516
0.158951
0.15082
0.14311
0.135812
0.128914
0.122416
0.116309
0.110579
0.399237
1.3409
3.21545
4.5221
5.09979
5.22643
5.15776
4.98449
4.75401
4.52301
4.2947
4.074
3.86603
3.67171
3.49001
3.32027
3.16211
3.01466
2.87703
2.74846
2.62817
2.51557
2.41004
2.31099
2.21803
2.13068
2.04846
1.97096
1.89783
1.82873
1.7634
1.70157
1.64295
1.58736
1.53457
1.48439
1.43662
1.39111
1.34767
1.30616
1.26643
1.22834
1.19174
1.15651
1.12253
1.08969
1.05786
1.02696
0.996879
0.967542
0.938869
0.910796
0.883263
0.856222
0.829632
0.803462
0.777687
0.752291
0.727263
0.702601
0.678304
0.65438
0.630838
0.60769
0.584951
0.562638
0.540768
0.519358
0.498425
0.477986
0.458055
0.438648
0.419775
0.401448
0.383674
0.36646
0.34981
0.333727
0.31821
0.303257
0.288866
0.275031
0.261745
0.249
0.236786
0.225093
0.213909
0.203223
0.193021
0.18329
0.174017
0.165187
0.156788
0.148808
0.141232
0.134053
0.127258
0.120842
0.11481
0.10912
1.54145
4.59858
6.36956
6.6799
6.53344
6.18454
5.79469
5.426
5.07854
4.76305
4.4766
4.21531
3.97709
3.75961
3.56014
3.37647
3.20698
3.05014
2.90465
2.76938
2.64332
2.52566
2.41565
2.31262
2.21601
2.12531
2.04004
1.95979
1.88417
1.81285
1.74551
1.68188
1.62168
1.56468
1.51066
1.4594
1.41072
1.36443
1.32035
1.27833
1.23819
1.1998
1.16301
1.12769
1.0937
1.06094
1.02927
0.99861
0.968847
0.939897
0.91168
0.884124
0.857168
0.830759
0.804849
0.779403
0.75439
0.729789
0.705582
0.68176
0.65832
0.63526
0.612586
0.590304
0.568425
0.546961
0.525924
0.505329
0.48519
0.46552
0.446333
0.427641
0.409454
0.391783
0.374635
0.358016
0.34193
0.32638
0.311367
0.296889
0.282945
0.269528
0.256634
0.244256
0.232385
0.221012
0.210125
0.199715
0.189769
0.180276
0.171221
0.162593
0.154378
0.146565
0.139141
0.132096
0.12542
0.119103
0.113162
0.107524
9.85457
8.25087
7.64841
7.14175
6.66919
6.21205
5.78295
5.39438
5.04284
4.72628
4.44079
4.18185
3.94604
3.73067
3.53307
3.35099
3.1827
3.02671
2.88176
2.74675
2.62073
2.50288
2.39253
2.28902
2.19182
2.10045
2.01445
1.93344
1.85706
1.78498
1.71691
1.65257
1.5917
1.53409
1.4795
1.42774
1.3786
1.33192
1.28751
1.24521
1.20486
1.16632
1.12944
1.09408
1.06013
1.02746
0.995959
0.96552
0.936048
0.907455
0.87966
0.852591
0.826184
0.800384
0.775141
0.750414
0.72617
0.70238
0.679025
0.656088
0.633559
0.611433
0.589706
0.568382
0.547464
0.526958
0.506874
0.48722
0.468007
0.449244
0.430941
0.413107
0.395752
0.378883
0.362506
0.346626
0.331247
0.316371
0.302
0.288131
0.274762
0.261891
0.249512
0.237618
0.226202
0.215256
0.20477
0.194734
0.185138
0.175969
0.167217
0.158869
0.150913
0.143336
0.136128
0.129276
0.122775
0.116604
0.110804
0.105248
7.79094
7.04962
6.55803
6.18269
5.85815
5.55016
5.25064
4.96375
4.69222
4.43748
4.20003
3.97905
3.77358
3.58246
3.40447
3.23841
3.08326
2.93807
2.80202
2.67438
2.55445
2.44165
2.33545
2.23539
2.14102
2.05196
1.96786
1.88839
1.81326
1.74219
1.67493
1.61124
1.55089
1.49369
1.43944
1.38794
1.33901
1.2925
1.24823
1.20606
1.16583
1.1274
1.09063
1.05541
1.02161
0.989123
0.957833
0.927647
0.898472
0.870225
0.842829
0.816215
0.79032
0.765089
0.740475
0.716433
0.692929
0.669932
0.647417
0.625365
0.603759
0.582589
0.561847
0.541528
0.521632
0.502159
0.483112
0.464494
0.44631
0.428566
0.411267
0.394419
0.378027
0.362096
0.34663
0.331632
0.317103
0.303046
0.28946
0.276343
0.263693
0.251506
0.239778
0.228503
0.217673
0.207281
0.197319
0.187776
0.178645
0.169913
0.16157
0.153604
0.146005
0.13876
0.131858
0.125287
0.119044
0.113098
0.107519
0.102111
6.22118
5.83071
5.51102
5.24869
5.02495
4.82018
4.62184
4.42665
4.23495
4.04769
3.86661
3.69253
3.52605
3.36738
3.21649
3.07318
2.93718
2.80818
2.68585
2.56986
2.45986
2.35554
2.25659
2.16272
2.07365
1.98914
1.90893
1.83279
1.76052
1.69189
1.62672
1.56483
1.50602
1.45013
1.39699
1.34644
1.29833
1.25251
1.20883
1.16716
1.12736
1.08931
1.05288
1.01795
0.984433
0.95221
0.921189
0.89128
0.8624
0.834473
0.807429
0.781203
0.755738
0.730982
0.70689
0.683419
0.660535
0.638206
0.616406
0.595112
0.574305
0.553971
0.534097
0.514674
0.495697
0.477161
0.459062
0.441401
0.424178
0.407391
0.391044
0.375138
0.359673
0.344652
0.330076
0.315945
0.302259
0.289018
0.276221
0.263864
0.251945
0.240458
0.229401
0.218765
0.208546
0.198735
0.189324
0.180305
0.171668
0.163404
0.155503
0.147954
0.140745
0.133867
0.127308
0.121056
0.11511
0.109435
0.104117
0.0989124
5.4767
5.18801
4.92832
4.69928
4.49859
4.31951
4.15421
3.99723
3.8457
3.69792
3.55393
3.4138
3.2778
3.1462
3.01917
2.8968
2.77916
2.66622
2.55795
2.45426
2.35502
2.26012
2.1694
2.08274
1.99998
1.92098
1.84558
1.77364
1.70503
1.6396
1.57721
1.51772
1.46101
1.40693
1.35535
1.30614
1.25917
1.21433
1.17148
1.13051
1.0913
1.05375
1.01774
0.983185
0.949981
0.91804
0.887279
0.857619
0.828986
0.801315
0.774542
0.748611
0.72347
0.699073
0.675378
0.652347
0.629947
0.608146
0.586919
0.566242
0.546094
0.526457
0.507317
0.488662
0.470481
0.452766
0.435509
0.418705
0.402349
0.386438
0.370968
0.355937
0.341343
0.327182
0.313454
0.300156
0.287286
0.27484
0.262816
0.25121
0.240016
0.229229
0.218845
0.208856
0.199256
0.190037
0.181192
0.172712
0.164588
0.156812
0.149373
0.142262
0.135468
0.128982
0.122792
0.11689
0.111271
0.105909
0.100883
0.0959452
5.11233
4.85981
4.62548
4.41048
4.21534
4.03855
3.87684
3.72681
3.5857
3.45156
3.32302
3.19921
3.07962
2.96399
2.85211
2.74393
2.63942
2.53856
2.44131
2.34762
2.25743
2.17067
2.08728
2.00718
1.93028
1.8565
1.78574
1.71793
1.65296
1.59074
1.53118
1.47418
1.41963
1.36743
1.31748
1.26967
1.2239
1.18007
1.13807
1.09782
1.05921
1.02215
0.986543
0.952316
0.919385
0.887671
0.857105
0.827619
0.799151
0.771641
0.745037
0.719291
0.694356
0.670194
0.646767
0.624041
0.601985
0.580571
0.559774
0.539569
0.519934
0.500853
0.482308
0.464284
0.446769
0.42975
0.413216
0.397157
0.381565
0.366431
0.351749
0.337512
0.323713
0.310347
0.297408
0.284891
0.272792
0.261104
0.249821
0.238937
0.228447
0.218343
0.208619
0.199267
0.19028
0.181651
0.173371
0.165432
0.157825
0.150542
0.143573
0.136911
0.130543
0.124463
0.118659
0.113129
0.107859
0.102847
0.0981296
0.0935375
4.93384
4.69731
4.47574
4.26899
4.0772
3.90004
3.73633
3.58446
3.4427
3.3095
3.18354
3.06377
2.94936
2.83972
2.73445
2.6332
2.53569
2.44174
2.35117
2.26386
2.1797
2.09858
2.02043
1.94517