/*--------------------------------*- C++ -*----------------------------------*\
| =========                 |                                                 |
| \\      /  F ield         | OpenFOAM: The Open Source CFD Toolbox           |
|  \\    /   O peration     | Version:  5.x                                   |
|   \\  /    A nd           | Web:      www.OpenFOAM.org                      |
|    \\/     M anipulation  |                                                 |
\*---------------------------------------------------------------------------*/
FoamFile
{
    version     2.0;
    format      ascii;
    class       volScalarField;
    location    "151";
    object      nut;
}
// * * * * * * * * * * * * * * * * * * * * * * * * * * * * * * * * * * * * * //

dimensions      [0 2 -1 0 0 0 0];

internalField   nonuniform List<scalar> 
5760
(
6.91871e-05
4.81682e-05
3.43995e-05
2.57054e-05
2.01653e-05
1.66058e-05
1.4265e-05
1.26585e-05
1.14962e-05
1.0612e-05
9.91194e-06
9.33798e-06
8.86383e-06
8.44873e-06
8.12201e-06
7.7838e-06
7.58945e-06
7.35209e-06
0.000279429
0.000182131
0.000135603
0.00011868
0.000108665
0.000102516
9.83574e-05
9.51624e-05
9.24648e-05
9.00848e-05
8.79443e-05
8.60266e-05
8.42921e-05
8.27673e-05
8.14657e-05
8.01982e-05
7.99782e-05
7.733e-05
0.000514051
0.000349562
0.000273533
0.00023842
0.000219485
0.000207066
0.000198281
0.000191544
0.000186013
0.000181267
0.000177076
0.000173344
0.000169975
0.000166974
0.000164332
0.000161851
0.000160526
0.000157417
0.000683887
0.000511993
0.00041879
0.000364412
0.000335141
0.000315152
0.000300701
0.000289663
0.000280808
0.000273424
0.000267087
0.000261554
0.00025665
0.000252301
0.00024846
0.000244973
0.000242425
0.000238916
0.000778125
0.000643595
0.000549733
0.00048716
0.000448872
0.000421778
0.000401721
0.000386258
0.0003739
0.00036372
0.000355121
0.000347727
0.000341273
0.0003356
0.000330604
0.000326156
0.000322481
0.00031836
0.000822392
0.000733688
0.000656224
0.000596474
0.000553804
0.000522117
0.000497843
0.000478717
0.00046326
0.000450485
0.000439722
0.00043051
0.000422525
0.000415542
0.000409405
0.000403978
0.000399268
0.00039443
0.000840638
0.00078926
0.000733483
0.000683712
0.000643344
0.000611061
0.000585088
0.000563925
0.00054643
0.000531759
0.000519291
0.000508569
0.000499257
0.000491104
0.000483924
0.000477569
0.000471932
0.000466389
0.000847289
0.000819789
0.00078389
0.000747082
0.000713572
0.00068449
0.000659681
0.000638588
0.000620596
0.000605155
0.000591809
0.000580188
0.000570001
0.000561015
0.00055305
0.000545954
0.00053958
0.000533456
0.000849345
0.00083431
0.000812388
0.000787254
0.000762009
0.000738336
0.000716898
0.000697807
0.000680925
0.000666021
0.000652846
0.000641166
0.000630774
0.000621496
0.000613181
0.0006057
0.000598908
0.00059245
0.000849978
0.000841672
0.00082958
0.000814555
0.000798015
0.000781172
0.000764827
0.000749422
0.000735153
0.000722068
0.000710132
0.000699272
0.000689395
0.00068041
0.000672224
0.00066475
0.000657875
0.000651365
0.000850095
0.000844649
0.000838123
0.000830271
0.000821269
0.000811488
0.000801323
0.000791106
0.000781078
0.000771401
0.000762171
0.00075344
0.000745224
0.000737521
0.000730313
0.000723573
0.000717252
0.000711255
0.000850099
0.000845401
0.000840833
0.000836155
0.000831222
0.000825984
0.000820461
0.000814717
0.000808828
0.000802872
0.000796921
0.000791032
0.000785254
0.000779621
0.000774158
0.00076888
0.000763784
0.000758837
0.000850096
0.000845467
0.000841156
0.000837001
0.000832875
0.000828693
0.000824411
0.000820015
0.000815514
0.00081093
0.000806291
0.00080163
0.000796976
0.000792355
0.000787792
0.000783306
0.000778915
0.000774635
0.000850086
0.000844931
0.000839294
0.000832974
0.00082599
0.000818485
0.000810641
0.000802635
0.000794614
0.000786694
0.000778957
0.000771459
0.000764237
0.000757311
0.00075069
0.000744379
0.000738382
0.000732734
0.000849827
0.000840967
0.000828674
0.000813929
0.000797976
0.000781801
0.000766044
0.000751072
0.000737057
0.000724053
0.000712045
0.000700982
0.000690797
0.000681415
0.000672763
0.000664775
0.000657402
0.000650658
0.000846897
0.000821019
0.000788383
0.000754857
0.000723741
0.000696049
0.000671824
0.00065074
0.000632374
0.000616314
0.000602195
0.000589712
0.000578609
0.000568677
0.000559744
0.000551669
0.000544347
0.000537794
0.000827212
0.00075288
0.000685657
0.000630912
0.000588827
0.000555874
0.000529579
0.000508195
0.000490496
0.000475612
0.000462919
0.000451961
0.000442397
0.000433968
0.000426476
0.000419767
0.000413712
0.000408382
0.000741431
0.000596871
0.000507154
0.000447741
0.00041057
0.000383321
0.000362564
0.000346221
0.000332989
0.000322031
0.000312786
0.000304864
0.000297985
0.000291942
0.00028658
0.000281789
0.000277429
0.000273664
0.000505477
0.000359988
0.000291051
0.000253598
0.000229326
0.000211805
0.000198558
0.000188132
0.000179673
0.000172662
0.000166758
0.000161717
0.000157365
0.000153568
0.000150221
0.000147264
0.000144554
0.000142299
0.000166665
0.000138033
0.000116264
9.90519e-05
8.53186e-05
7.4309e-05
6.54461e-05
5.8266e-05
5.24015e-05
4.757e-05
4.35544e-05
4.01904e-05
3.73475e-05
3.4931e-05
3.28547e-05
3.1071e-05
2.95084e-05
2.81594e-05
1.78738e-08
1.61618e-07
3.34296e-07
4.80239e-07
6.13491e-07
7.59619e-07
9.23927e-07
1.11236e-06
1.32757e-06
1.57392e-06
1.86249e-06
2.21017e-06
2.63416e-06
3.15364e-06
3.78346e-06
4.52521e-06
5.37669e-06
6.33143e-06
7.37817e-06
8.50297e-06
9.6932e-06
1.09379e-05
1.22273e-05
1.35524e-05
1.4905e-05
1.62774e-05
1.76618e-05
1.90501e-05
2.04342e-05
2.1805e-05
2.31531e-05
2.44688e-05
2.57429e-05
2.69702e-05
2.81566e-05
2.92787e-05
3.03288e-05
3.13006e-05
3.21871e-05
3.2982e-05
3.368e-05
3.42767e-05
3.47693e-05
3.51557e-05
3.54354e-05
3.56081e-05
3.56526e-05
3.55935e-05
3.54761e-05
3.52485e-05
3.49282e-05
3.45235e-05
3.40415e-05
3.34891e-05
3.2874e-05
3.22031e-05
3.14839e-05
3.07233e-05
2.99284e-05
2.91053e-05
2.8261e-05
2.74011e-05
2.65299e-05
2.56522e-05
2.47732e-05
2.38971e-05
2.30276e-05
2.21679e-05
2.13207e-05
2.04887e-05
1.9674e-05
1.88782e-05
1.81031e-05
1.73497e-05
1.6619e-05
1.59115e-05
1.5228e-05
1.45686e-05
1.39334e-05
1.33225e-05
1.27357e-05
1.2173e-05
1.1634e-05
1.1118e-05
1.06247e-05
1.01535e-05
9.70369e-06
9.2746e-06
8.86547e-06
8.47545e-06
8.10379e-06
7.74958e-06
7.41223e-06
7.08943e-06
6.7844e-06
6.48579e-06
6.21766e-06
5.91071e-06
5.69484e-06
5.02642e-06
9.60472e-08
5.16438e-06
1.32625e-05
1.80019e-05
2.06275e-05
2.22707e-05
2.37278e-05
2.51762e-05
2.66205e-05
2.80797e-05
2.96593e-05
3.14929e-05
3.36009e-05
3.60817e-05
3.90741e-05
4.24902e-05
4.63081e-05
5.05607e-05
5.52062e-05
6.01987e-05
6.54872e-05
7.1021e-05
7.67519e-05
8.26356e-05
8.86322e-05
9.47058e-05
0.000100824
0.000106957
0.000113073
0.000119143
0.00012513
0.000130988
0.000136645
0.000141979
0.000146744
0.000151175
0.000155371
0.000159302
0.000162948
0.000166288
0.000169304
0.000171981
0.000174308
0.000176281
0.000177901
0.000179184
0.000180065
0.000180498
0.000180681
0.000180585
0.000180144
0.000179399
0.000178372
0.000177084
0.000175557
0.000173813
0.000171872
0.000169756
0.000167485
0.000165078
0.000162554
0.00015993
0.000157222
0.000154444
0.000151613
0.000148743
0.000145844
0.000142927
0.000140001
0.000137076
0.00013416
0.000131258
0.000128378
0.000125523
0.000122698
0.000119906
0.000117151
0.000114436
0.000111762
0.000109132
0.000106547
0.000104005
0.000101509
9.90603e-05
9.66608e-05
9.43104e-05
9.20086e-05
8.97545e-05
8.75468e-05
8.5385e-05
8.32676e-05
8.11947e-05
7.91615e-05
7.7172e-05
7.52037e-05
7.31765e-05
7.11724e-05
6.87923e-05
6.6854e-05
6.02911e-05
2.28713e-07
1.15826e-05
2.78812e-05
3.81572e-05
4.42909e-05
4.82884e-05
5.14411e-05
5.43549e-05
5.72748e-05
6.0336e-05
6.36739e-05
6.74492e-05
7.19023e-05
7.71156e-05
8.30187e-05
8.97233e-05
9.73157e-05
0.000105497
0.000114221
0.000123391
0.000132908
0.000142683
0.000152636
0.000162701
0.000172822
0.000182951
0.000193047
0.000203072
0.000212987
0.00022275
0.000232312
0.000241612
0.000250569
0.000259081
0.000267085
0.000274695
0.000281924
0.000288734
0.000295093
0.00030097
0.000306338
0.000311175
0.000315463
0.000319195
0.00032237
0.000325014
0.000327124
0.000328372
0.000329268
0.000329704
0.000329591
0.000328974
0.000327887
0.000326359
0.000324419
0.0003221
0.00031943
0.000316441
0.000313163
0.000309624
0.000305849
0.000301867
0.000297701
0.000293379
0.000288923
0.000284355
0.000279694
0.000274955
0.000270155
0.000265311
0.000260435
0.00025554
0.000250636
0.00024573
0.000240832
0.000235949
0.000231087
0.000226251
0.000221446
0.000216678
0.000211948
0.000207259
0.000202614
0.000198019
0.000193474
0.000188981
0.000184541
0.000180152
0.000175813
0.000171525
0.000167287
0.000163102
0.00015896
0.000154871
0.000150812
0.00014671
0.000142666
0.000137969
0.000134516
0.000123864
4.04264e-07
1.7546e-05
3.96482e-05
5.36047e-05
6.20904e-05
6.78091e-05
7.24307e-05
7.68221e-05
8.13942e-05
8.63717e-05
9.1931e-05
9.82368e-05
0.00010543
0.000113559
0.000122602
0.00013255
0.000143195
0.000154606
0.000166532
0.000178856
0.000191472
0.000204282
0.000217206
0.000230176
0.000243138
0.000256044
0.000268854
0.000281528
0.000294026
0.000306305
0.00031832
0.000330013
0.000341314
0.000352153
0.000362528
0.000372458
0.000381922
0.000390878
0.000399288
0.000407112
0.000414318
0.000420876
0.000426764
0.000431967
0.000436475
0.0004404
0.00044363
0.000445729
0.000447469
0.00044858
0.000449011
0.000448802
0.000447987
0.000446602
0.000444679
0.000442255
0.000439363
0.000436039
0.000432319
0.000428235
0.000423821
0.000419106
0.000414123
0.000408903
0.000403474
0.000397865
0.000392099
0.000386212
0.000380223
0.00037414
0.000367979
0.000361755
0.000355483
0.000349174
0.000342842
0.000336497
0.000330147
0.000323803
0.000317471
0.000311159
0.00030487
0.000298612
0.000292392
0.000286214
0.000280081
0.000273997
0.000267961
0.000261972
0.000256028
0.000250134
0.000244287
0.00023849
0.000232737
0.000227034
0.000221362
0.000215655
0.000210049
0.000203625
0.000199023
0.000186176
6.10383e-07
2.25567e-05
4.96492e-05
6.6846e-05
7.74882e-05
8.48475e-05
9.09262e-05
9.68056e-05
0.000103026
0.000109872
0.000117522
0.000126104
0.00013569
0.000146281
0.000157825
0.000170239
0.000183396
0.000197085
0.000211213
0.000225682
0.000240382
0.000255215
0.000270099
0.000284968
0.000299766
0.000314446
0.000328969
0.000343297
0.000357392
0.000371216
0.000384736
0.000397912
0.000410711
0.000423102
0.000435046
0.000446523
0.0004575
0.000467934
0.000477783
0.000487005
0.000495564
0.000503426
0.000510564
0.000516958
0.000522595
0.000527653
0.000531819
0.000534862
0.000537483
0.000539371
0.000540501
0.000540906
0.00054062
0.000539677
0.000538109
0.000535953
0.000533243
0.000530016
0.000526309
0.000522157
0.000517595
0.000512656
0.000507375
0.000501785
0.000495919
0.000489807
0.000483476
0.000476952
0.000470262
0.000463429
0.000456474
0.000449415
0.00044227
0.000435055
0.000427785
0.000420474
0.000413133
0.000405774
0.000398407
0.000391041
0.000383694
0.000376372
0.000369077
0.000361813
0.000354584
0.000347395
0.000340245
0.000333132
0.000326057
0.000319024
0.000312033
0.000305088
0.000298183
0.000291324
0.000284498
0.00027764
0.000270918
0.000263331
0.000257923
0.000243662
8.16235e-07
2.68591e-05
5.81596e-05
7.84025e-05
9.11735e-05
0.000100178
0.000107701
0.00011501
0.000122759
0.000131273
0.000140722
0.000151186
0.000162683
0.000175167
0.000188549
0.000202712
0.000217508
0.000232783
0.000248432
0.000264319
0.000280335
0.000296394
0.000312425
0.000328373
0.000344193
0.000359851
0.000375317
0.000390567
0.000405576
0.00042032
0.000434764
0.000448879
0.000462633
0.000475997
0.000488936
0.000501418
0.000513404
0.000524851
0.000535715
0.000545952
0.000555522
0.000564387
0.000572516
0.000579884
0.000586483
0.000592499
0.000597499
0.000601479
0.000604957
0.000607645
0.000609529
0.00061064
0.000611006
0.00061066
0.000609633
0.000607956
0.000605666
0.000602796
0.000599384
0.000595463
0.000591071
0.000586242
0.000581009
0.000575407
0.00056947
0.00056323
0.000556718
0.00054996
0.000542985
0.000535819
0.000528485
0.000521005
0.000513398
0.000505685
0.000497881
0.000490004
0.000482068
0.000474086
0.000466073
0.000458037
0.000449992
0.00044195
0.000433921
0.000425913
0.000417932
0.000409981
0.000402059
0.000394173
0.000386324
0.000378508
0.000370727
0.000362986
0.000355281
0.000347618
0.000339994
0.000332343
0.000324848
0.000316541
0.000310429
0.000295863
1.00254e-06
3.03721e-05
6.52064e-05
8.8325e-05
0.000103232
0.000113915
0.000122871
0.000131532
0.000140646
0.00015058
0.000161488
0.000173416
0.00018634
0.000200182
0.000214834
0.000230164
0.00024602
0.000262259
0.000278763
0.000295413
0.000312115
0.000328792
0.000345384
0.000361846
0.000378145
0.000394258
0.000410165
0.000425853
0.000441304
0.000456504
0.000471429
0.000486057
0.000500362
0.000514314
0.000527879
0.00054102
0.000553696
0.000565863
0.000577473
0.000588482
0.000598847
0.000608524
0.000617477
0.000625671
0.000633132
0.000639953
0.000645741
0.000650638
0.000654937
0.000658432
0.000661092
0.00066295
0.000664034
0.000664371
0.000663988
0.000662917
0.000661187
0.000658833
0.000655888
0.000652388
0.000648366
0.000643858
0.000638896
0.000633516
0.000627751
0.000621633
0.000615195
0.000608466
0.000601474
0.000594246
0.000586808
0.000579183
0.000571394
0.000563461
0.000555405
0.000547242
0.000538991
0.000530667
0.000522285
0.000513859
0.000505401
0.000496927
0.000488451
0.000479983
0.000471529
0.000463092
0.00045467
0.000446267
0.000437884
0.000429526
0.000421199
0.000412909
0.000404664
0.000396461
0.000388303
0.000380128
0.000372118
0.000363408
0.00035671
0.000342563
1.15639e-06
3.30642e-05
7.08028e-05
9.65825e-05
0.000113606
0.000125985
0.000136361
0.000146288
0.000156599
0.000167711
0.000179761
0.000192764
0.000206673
0.000221399
0.000236826
0.000252848
0.000269283
0.000285993
0.000302861
0.000319787
0.000336688
0.000353504
0.000370188
0.000386712
0.000403055
0.000419209
0.000435167
0.000450926
0.000466481
0.000481823
0.000496939
0.000511809
0.00052641
0.000540712
0.00055468
0.000568274
0.00058145
0.000594161
0.000606359
0.000617996
0.000629023
0.000639396
0.000649072
0.000658009
0.000666251
0.000673753
0.000680331
0.000686101
0.000691198
0.000695506
0.000698943
0.000701567
0.000703401
0.000704469
0.000704793
0.000704399
0.000703316
0.000701573
0.000699204
0.000696241
0.000692718
0.000688667
0.000684122
0.000679115
0.000673682
0.000667854
0.000661663
0.000655139
0.000648312
0.00064121
0.000633858
0.000626283
0.000618507
0.000610553
0.000602443
0.000594196
0.000585832
0.000577367
0.00056882
0.000560204
0.000551536
0.000542833
0.00053411
0.000525382
0.000516656
0.000507933
0.000499209
0.000490488
0.000481776
0.000473081
0.000464407
0.000455766
0.000447159
0.000438596
0.000430085
0.000421583
0.000413251
0.000404357
0.000397207
0.000383796
1.27104e-06
3.4962e-05
7.50018e-05
0.000103172
0.000122239
0.000136301
0.000148063
0.000159183
0.000170503
0.000182409
0.000195187
0.000208888
0.000223448
0.000238752
0.000254653
0.000270984
0.000287592
0.000304349
0.000321157
0.000337936
0.000354624
0.000371178
0.000387573
0.000403799
0.000419856
0.000435748
0.000451485
0.000467074
0.000482517
0.000497812
0.000512948
0.000527908
0.000542666
0.00055719
0.000571443
0.00058538
0.000598954
0.000612116
0.000624814
0.000636995
0.00064861
0.000659609
0.000669945
0.000679577
0.000688518
0.000696679
0.000704012
0.000710598
0.000716494
0.000721623
0.000725826
0.000729222
0.000731824
0.000733649
0.000734714
0.000735042
0.000734658
0.000733589
0.000731865
0.000729515
0.000726573
0.000723069
0.000719037
0.000714507
0.000709513
0.000704088
0.000698262
0.000692068
0.000685533
0.000678687
0.000671556
0.000664168
0.000656545
0.000648713
0.000640693
0.000632508
0.000624177
0.000615721
0.000607156
0.000598501
0.000589773
0.00058099
0.000572172
0.000563332
0.000554481
0.000545622
0.000536743
0.000527852
0.000518958
0.00051007
0.000501196
0.000492348
0.000483533
0.000474761
0.000466047
0.000457356
0.000448834
0.0004399
0.00043243
0.000419855
1.34546e-06
3.61283e-05
7.78954e-05
0.000108138
0.000129122
0.000144823
0.00015787
0.000169838
0.000181871
0.000194543
0.00020798
0.000222172
0.00023705
0.000252496
0.000268378
0.000284659
0.000301079
0.000317494
0.000333849
0.000350096
0.000366203
0.000382154
0.000397951
0.000413608
0.000429144
0.00044458
0.000459936
0.000475226
0.000490455
0.000505622
0.000520714
0.000535708
0.000550575
0.000565278
0.000579772
0.00059401
0.00060794
0.000621509
0.000634663
0.000647346
0.000659505
0.000671087
0.000682043
0.00069233
0.000701919
0.000710746
0.000718775
0.00072614
0.000732854
0.000738774
0.000743739
0.000747909
0.000751287
0.000753884
0.000755712
0.00075679
0.000757139
0.000756783
0.000755749
0.000754065
0.00075176
0.000748866
0.000745412
0.00074143
0.000736952
0.00073201
0.000726635
0.000720857
0.000714707
0.000708211
0.000701399
0.000694297
0.000686931
0.000679325
0.000671503
0.000663488
0.000655301
0.000646964
0.000638495
0.000629913
0.000621239
0.000612492
0.000603692
0.000594854
0.000585991
0.000577108
0.000568186
0.000559237
0.000550273
0.000541303
0.000532341
0.000523397
0.000514485
0.000505615
0.000496808
0.000488039
0.000479438
0.000470552
0.000462883
0.000451133
1.38151e-06
3.6653e-05
7.95999e-05
0.000111576
0.000134255
0.000151212
0.000165295
0.000178335
0.000191209
0.00020439
0.000218093
0.00023236
0.000247145
0.000262339
0.000277976
0.000293794
0.000309614
0.000325287
0.000340805
0.000356164
0.000371371
0.00038645
0.000401431
0.000416352
0.000431251
0.000446159
0.000461098
0.000476082
0.00049111
0.000506173
0.000521249
0.000536307
0.000551308
0.000566206
0.000580952
0.000595493
0.000609773
0.000623737
0.000637328
0.000650488
0.000663164
0.000675297
0.000686841
0.000697745
0.000707965
0.000717389
0.000726153
0.00073424
0.000741779
0.000748443
0.000754165
0.000759106
0.000763264
0.000766639
0.000769242
0.000771087
0.00077219
0.000772573
0.00077226
0.000771277
0.000769651
0.00076741
0.000764584
0.000761201
0.000757295
0.000752895
0.000748033
0.000742738
0.00073704
0.000730967
0.000724548
0.000717809
0.000710778
0.000703478
0.000695935
0.000688174
0.000680217
0.000672085
0.0006638
0.000655381
0.00064685
0.000638229
0.000629537
0.00062079
0.000612002
0.000603179
0.000594302
0.000585382
0.000576434
0.00056747
0.000558506
0.000549555
0.000540631
0.00053175
0.000522933
0.000514169
0.000505572
0.000496798
0.000489028
0.000478049
1.37824e-06
3.65908e-05
8.01925e-05
0.000113226
0.000137189
0.000155618
0.000170957
0.000184797
0.000198117
0.000211447
0.000225049
0.000238952
0.000253264
0.000268085
0.000283024
0.000297892
0.000312624
0.000327143
0.000341467
0.000355646
0.000369734
0.000383794
0.000397888
0.000412069
0.000426379
0.000440845
0.000455481
0.000470285
0.00048524
0.000500322
0.000515492
0.000530707
0.000545917
0.000561068
0.000576105
0.000590972
0.000605611
0.000619966
0.000633981
0.000647598
0.000660766
0.00067342
0.000685517
0.000697006
0.000707778
0.000717813
0.000727306
0.000736078
0.000744424
0.00075177
0.000758241
0.000763947
0.000768878
0.000773031
0.000776412
0.00077903
0.0007809
0.000782039
0.000782467
0.000782209
0.000781289
0.000779734
0.000777571
0.000774826
0.000771534
0.000767723
0.000763421
0.000758661
0.00075347
0.000747875
0.000741906
0.000735592
0.000728957
0.000722027
0.00071483
0.000707391
0.000699731
0.000691875
0.000683844
0.000675659
0.000667344
0.000658921
0.000650409
0.000641825
0.000633183
0.000624488
0.000615723
0.000606901
0.00059804
0.000589153
0.000580257
0.000571367
0.000562501
0.000553676
0.000544917
0.000536222
0.000527691
0.000519072
0.000511284
0.000501004
1.35831e-06
3.62469e-05
7.99935e-05
0.000113933
0.000139131
0.000158522
0.000174495
0.000188668
0.000202065
0.000215015
0.000228027
0.000241473
0.000255131
0.000268785
0.000282337
0.000295719
0.000308925
0.000321949
0.000334858
0.000347743
0.000360708
0.000373845
0.000387225
0.000400894
0.000414877
0.000429177
0.000443779
0.000458653
0.00047376
0.00048905
0.000504471
0.000519967
0.000535479
0.000550946
0.000566313
0.000581525
0.000596524
0.000611256
0.000625675
0.000639716
0.000653341
0.00066647
0.000679078
0.000691085
0.000702304
0.000713074
0.000723164
0.000732644
0.000741703
0.00074968
0.000756887
0.000763341
0.000769031
0.000773951
0.000778102
0.000781491
0.000784128
0.000786027
0.000787208
0.000787689
0.000787493
0.000786645
0.000785171
0.00078309
0.000780445
0.000777257
0.000773554
0.00076937
0.000764727
0.000759656
0.000754185
0.000748344
0.000742157
0.00073565
0.000728853
0.000721791
0.000714487
0.000706965
0.000699247
0.000691357
0.00068332
0.000675156
0.000666883
0.000658521
0.000650082
0.00064157
0.000632972
0.000624307
0.00061559
0.000606838
0.000598068
0.000589298
0.000580546
0.000571833
0.000563185
0.000554609
0.000546194
0.00053776
0.000530018
0.00052037
1.31527e-06
3.55282e-05
7.91928e-05
0.000113683
0.000139581
0.000159481
0.0001756
0.000189395
0.000202052
0.000214465
0.000226681
0.000238696
0.00025058
0.000262282
0.000273837
0.000285307
0.000296778
0.000308324
0.000319978
0.000331852
0.000344083
0.00035676
0.000369923
0.00038358
0.000397708
0.000412269
0.000427207
0.000442461
0.000457965
0.000473655
0.000489468
0.000505341
0.000521213
0.000537022
0.00055272
0.000568261
0.00058359
0.000598653
0.000613429
0.000627829
0.000641861
0.000655393
0.00066845
0.000680728
0.000692517
0.000703696
0.000714242
0.000724413
0.000733943
0.00074253
0.000750423
0.000757594
0.000764027
0.000769712
0.000774645
0.000778827
0.000782263
0.000784963
0.000786941
0.000788211
0.000788794
0.000788711
0.000787984
0.000786626
0.000784652
0.000782111
0.000779036
0.00077546
0.000771399
0.000766887
0.000761953
0.000756626
0.000750931
0.000744889
0.00073854
0.000731904
0.000725005
0.000717866
0.000710514
0.000702972
0.000695263
0.000687409
0.000679426
0.000671335
0.000663147
0.000654864
0.000646483
0.000638023
0.000629501
0.000620934
0.00061234
0.000603738
0.000595149
0.000586594
0.000578102
0.000569686
0.000561427
0.0005532
0.000545554
0.000536473
1.25277e-06
3.45273e-05
7.74967e-05
0.000111843
0.000137614
0.000156946
0.00017223
0.000185474
0.000197134
0.00020764
0.000217512
0.000226945
0.000236159
0.000245332
0.000254656
0.000264306
0.00027445
0.000285181
0.00029644
0.000308166
0.00032054
0.000333597
0.000347305
0.000361605
0.000376419
0.000391667
0.000407266
0.000423129
0.000439182
0.000455359
0.000471599
0.000487848
0.000504051
0.000520146
0.000536108
0.000551904
0.000567478
0.000582777
0.000597839
0.000612492
0.000626679
0.000640236
0.000653318
0.000666018
0.000678263
0.00069001
0.000701178
0.000712115
0.000722254
0.000731611
0.00074026
0.000748172
0.000755336
0.000761743
0.000767392
0.000772284
0.000776425
0.000779825
0.000782497
0.000784457
0.000785723
0.000786315
0.000786258
0.000785603
0.000784357
0.000782529
0.000780146
0.000777243
0.000773846
0.000769977
0.00076566
0.000760924
0.000755794
0.000750287
0.000744434
0.00073827
0.000731822
0.000725115
0.000718176
0.000711027
0.000703692
0.000696193
0.000688542
0.000680763
0.000672865
0.000664848
0.000656724
0.00064851
0.000640222
0.000631878
0.000623498
0.0006151
0.000606709
0.000598344
0.000590037
0.000581808
0.000573728
0.000565715
0.000558196
0.000549616
1.18447e-06
3.33559e-05
7.50359e-05
0.0001081
0.000132202
0.000150256
0.000163991
0.00017429
0.000182381
0.000189333
0.000195793
0.000202266
0.000209146
0.000216731
0.000225205
0.000234671
0.000245029
0.000256184
0.000268035
0.000280834
0.000294456
0.000308777
0.000323686
0.000339081
0.000354866
0.00037095
0.000387256
0.000403697
0.000420208
0.000436748
0.00045327
0.000469738
0.000486112
0.000502318
0.000518376
0.000534274
0.000549941
0.000565294
0.000580377
0.00059484
0.000608977
0.000622966
0.000636536
0.000649696
0.000662472
0.000674735
0.00068661
0.000697978
0.000708529
0.000718325
0.000727432
0.000735847
0.000743558
0.000750552
0.000756823
0.000762367
0.000767183
0.000771276
0.000774654
0.000777327
0.000779309
0.000780616
0.000781269
0.00078129
0.000780693
0.000779506
0.000777748
0.000775434
0.000772609
0.000769302
0.000765539
0.000761345
0.000756749
0.000751797
0.00074649
0.000740852
0.000734911
0.000728693
0.000722222
0.000715522
0.000708615
0.000701525
0.00069426
0.000686837
0.00067927
0.00067157
0.000663752
0.000655832
0.000647827
0.000639756
0.000631638
0.000623494
0.000615346
0.000607218
0.000599141
0.000591139
0.000583278
0.000575507
0.000568154
0.000560041
1.12289e-06
3.21818e-05
7.19627e-05
0.000102446
0.000124002
0.000138388
0.000147132
0.000152485
0.000156401
0.000160176
0.000164665
0.000170401
0.000177582
0.000186276
0.000196372
0.000207585
0.000219447
0.000232152
0.000245812
0.000260233
0.000275263
0.000290748
0.00030659
0.000322711
0.000339037
0.000355505
0.000372068
0.00038864
0.000405183
0.000421693
0.000438134
0.000454489
0.000470736
0.000486745
0.000502641
0.000518417
0.000533952
0.000548838
0.00056372
0.000578349
0.000592671
0.000606797
0.000620629
0.000634041
0.000646885
0.000659221
0.000671227
0.000682523
0.000693254
0.000703381
0.000712871
0.000721706
0.00072987
0.000737348
0.000744131
0.000750212
0.000755586
0.000760256
0.000764226
0.000767502
0.000770097
0.000772023
0.000773298
0.000773939
0.000773963
0.000773394
0.000772251
0.000770563
0.000768352
0.000765645
0.000762467
0.000758845
0.000754803
0.00075037
0.00074557
0.000740429
0.000734972
0.000729225
0.000723211
0.000716952
0.000710471
0.000703785
0.000696917
0.000689875
0.000682675
0.000675329
0.000667855
0.000660269
0.000652587
0.000644829
0.000637015
0.000629165
0.000621303
0.000613451
0.000605639
0.000597899
0.000590289
0.000582783
0.000575639
0.000567976
1.07153e-06
3.09958e-05
6.7797e-05
9.42996e-05
0.000110123
0.000117355
0.000120205
0.000121735
0.00012405
0.000128256
0.000134644
0.000143218
0.000153526
0.000165335
0.000177748
0.000190848
0.000204752
0.000219272
0.000234291
0.000249697
0.00026542
0.00028131
0.000297345
0.000313497
0.000329723
0.000345986
0.000362286
0.0003785
0.000394638
0.000410742
0.000426763
0.0004427
0.000458561
0.00047407
0.000489597
0.000504938
0.000519885
0.000534669
0.000549349
0.000563939
0.000578269
0.00059222
0.000605736
0.000618853
0.000631567
0.000644025
0.000655905
0.000667274
0.00067812
0.000688408
0.000698107
0.000707193
0.000715647
0.000723451
0.000730593
0.000737064
0.000742858
0.000747972
0.000752407
0.000756169
0.000759266
0.000761707
0.000763506
0.00076468
0.000765244
0.000765217
0.00076462
0.000763475
0.000761805
0.000759636
0.00075699
0.000753894
0.000750371
0.000746448
0.00074215
0.000737502
0.000732527
0.00072725
0.000721694
0.00071588
0.000709832
0.000703564
0.000697084
0.000690419
0.000683586
0.000676599
0.000669475
0.00066223
0.000654883
0.000647452
0.000639956
0.000632418
0.000624859
0.000617307
0.000609788
0.000602334
0.000595001
0.000587777
0.000580868
0.000573627
1.03085e-06
2.94829e-05
6.19885e-05
8.08271e-05
8.75348e-05
8.86863e-05
8.93403e-05
9.22791e-05
9.82761e-05
0.00010722
0.000118271
0.000131135
0.000144368
0.000158033
0.000172348
0.000187125
0.000202121
0.000217286
0.000232613
0.000248058
0.00026365
0.000279178
0.000294747
0.000310368
0.000325999
0.000341621
0.000357298
0.000372789
0.000388215
0.000403669
0.000419033
0.000434313
0.000449512
0.00046454
0.000479407
0.00049402
0.000508658
0.000523225
0.000537628
0.000551723
0.000565493
0.000578982
0.000592209
0.000605087
0.000617686
0.000629847
0.000641595
0.000652884
0.000663689
0.00067398
0.000683727
0.000692905
0.000701493
0.000709472
0.000716827
0.000723546
0.000729621
0.000735047
0.000739823
0.000743951
0.000747435
0.000750284
0.000752509
0.000754121
0.000755136
0.000755571
0.000755443
0.000754773
0.000753582
0.000751892
0.000749727
0.00074711
0.000744064
0.000740615
0.000736785
0.000732599
0.000728079
0.000723248
0.000718129
0.00071274
0.000707102
0.000701232
0.000695143
0.000688858
0.000682395
0.000675771
0.000669002
0.000662105
0.000655099
0.000648001
0.000640831
0.000633612
0.000626363
0.000619112
0.000611888
0.000604721
0.000597662
0.000590713
0.00058404
0.000577177
9.98281e-07
2.73573e-05
5.20915e-05
5.99899e-05
6.09616e-05
6.28042e-05
6.82868e-05
7.77757e-05
8.99492e-05
0.000104074
0.00011827
0.000132721
0.000147589
0.000162524
0.000177531
0.000192649
0.000207592
0.000222481
0.000237392
0.000252283
0.000267289
0.000281996
0.000296776
0.000311604
0.000326403
0.000341181
0.000355962
0.000370669
0.000385307
0.000399927
0.000414503
0.000429022
0.000443471
0.000457778
0.000471944
0.000486204
0.000500357
0.000514222
0.000527879
0.00054141
0.000554692
0.000567708
0.000580582
0.000593062
0.00060527
0.000617125
0.000628603
0.000639668
0.00065029
0.000660441
0.000670094
0.000679221
0.000687802
0.000695815
0.000703246
0.000710079
0.000716305
0.000721918
0.000726913
0.00073129
0.000735052
0.000738203
0.000740751
0.000742708
0.000744086
0.000744898
0.000745161
0.000744892
0.000744111
0.000742839
0.000741097
0.000738906
0.000736288
0.000733266
0.000729863
0.0007261
0.000722
0.000717583
0.000712869
0.000707877
0.000702626
0.000697135
0.000691421
0.000685504
0.000679401
0.00067313
0.000666708
0.000660152
0.00065348
0.00064671
0.000639863
0.000632958
0.000626018
0.000619066
0.000612134
0.000605247
0.000598456
0.000591769
0.000585322
0.000578789
9.96283e-07
2.39167e-05
3.63744e-05
3.8944e-05
4.34305e-05
5.30324e-05
6.59443e-05
8.14587e-05
9.69965e-05
0.000112193
0.00012764
0.000143089
0.000158254
0.000173149
0.000187938
0.00020276
0.000217089
0.000231339
0.000245603
0.000259756
0.000273885
0.000287874
0.000301818
0.000315742
0.000329662
0.000343561
0.00035745
0.000371305
0.000385104
0.000398885
0.000412649
0.000426398
0.000440117
0.000453731
0.000467357
0.000480782
0.000494089
0.000507278
0.000520301
0.000533259
0.000545964
0.000558443
0.000570754
0.000582772
0.00059452
0.000605956
0.00061705
0.000627771
0.00063809
0.000647979
0.000657411
0.000666363
0.00067481
0.000682733
0.000690115
0.000696941
0.0007032
0.000708883
0.000713984
0.0007185
0.000722433
0.000725785
0.000728561
0.00073077
0.000732422
0.000733528
0.000734103
0.000734162
0.000733723
0.000732803
0.000731422
0.000729599
0.000727356
0.000724711
0.000721688
0.000718304
0.000714581
0.000710537
0.000706192
0.000701565
0.000696676
0.000691542
0.00068618
0.000680611
0.00067485
0.000668916
0.000662826
0.000656597
0.000650247
0.000643793
0.000637255