/*--------------------------------*- C++ -*----------------------------------*\
| =========                 |                                                 |
| \\      /  F ield         | OpenFOAM: The Open Source CFD Toolbox           |
|  \\    /   O peration     | Version:  5.x                                   |
|   \\  /    A nd           | Web:      www.OpenFOAM.org                      |
|    \\/     M anipulation  |                                                 |
\*---------------------------------------------------------------------------*/
FoamFile
{
    version     2.0;
    format      ascii;
    class       volScalarField;
    location    "151";
    object      p;
}
// * * * * * * * * * * * * * * * * * * * * * * * * * * * * * * * * * * * * * //

dimensions      [0 2 -2 0 0 0 0];

internalField   nonuniform List<scalar> 
5760
(
0.424563
0.181537
0.0957664
0.0740387
0.0606618
0.0495668
0.0418844
0.0363458
0.0316847
0.0274599
0.0235222
0.0197263
0.0159322
0.0119967
0.0077818
0.00295483
-0.0028983
-0.0113639
0.074564
0.0849506
0.075276
0.0696187
0.0603449
0.0505424
0.0431187
0.0375128
0.0327252
0.0283759
0.0243231
0.0204268
0.0165485
0.012562
0.00832415
0.00359183
-0.00184128
-0.00858645
0.0359133
0.0820298
0.0787391
0.0709115
0.0621363
0.0530987
0.0457275
0.039854
0.034768
0.0301554
0.0258796
0.0218028
0.0177939
0.013741
0.00953121
0.00507266
0.000334579
-0.00431468
0.0652295
0.0878616
0.0791818
0.0699319
0.0620498
0.0540235
0.0470414
0.0412239
0.0361014
0.0314239
0.0270763
0.0229437
0.01892
0.0149237
0.010896
0.00684582
0.00287566
-0.000673325
0.0743238
0.0825796
0.0749472
0.0672875
0.0606283
0.0536706
0.0472981
0.0417727
0.036812
0.032233
0.0279506
0.023882
0.0199533
0.016117
0.0123595
0.00873312
0.00537458
0.00245969
0.0715787
0.0754076
0.0705259
0.0645479
0.0588307
0.0527955
0.0470613
0.0419055
0.0371878
0.0327887
0.0286512
0.0247229
0.0209594
0.0173407
0.01388
0.0106387
0.00773715
0.00524765
0.0681989
0.0702555
0.066932
0.0620094
0.0569874
0.0517156
0.0465742
0.041805
0.0373661
0.0331918
0.029249
0.02551
0.0219539
0.0185791
0.0154095
0.0124993
0.00993437
0.00773186
0.0654669
0.0663576
0.0637695
0.0596227
0.0552018
0.0505709
0.0459648
0.0415815
0.0374404
0.0335173
0.0297997
0.0262787
0.0229502
0.0198226
0.0169204
0.0142844
0.011966
0.00995771
0.0629018
0.0631099
0.0609765
0.0574794
0.0535932
0.0494953
0.0453568
0.0413386
0.0374925
0.0338246
0.030339
0.0270397
0.023933
0.0210316
0.0183562
0.015934
0.0137917
0.0119152
0.0600973
0.0599327
0.0582042
0.0553211
0.0519639
0.0483754
0.0446987
0.0410631
0.0375388
0.0341555
0.030931
0.0278794
0.0250131
0.0223452
0.0198905
0.0176632
0.0156725
0.01391
0.0569478
0.0566502
0.0552905
0.053004
0.0502226
0.0471851
0.0440203
0.0408328
0.0376982
0.0346626
0.0317552
0.0289971
0.0264042
0.0239882
0.0217583
0.0197195
0.0178725
0.0162145
0.0540895
0.0538017
0.0527451
0.0509585
0.0487127
0.0462007
0.0435371
0.0408106
0.0380926
0.0354344
0.0328708
0.030426
0.0281164
0.0259524
0.0239398
0.0220799
0.0203706
0.0188113
0.0527047
0.0524828
0.0516526
0.050201
0.048321
0.0461759
0.0438704
0.0414836
0.039082
0.0367157
0.03442
0.0322185
0.030127
0.0281548
0.0263068
0.0245834
0.0229831
0.0215054
0.0541369
0.0540035
0.0532774
0.0518251
0.0498797
0.0476783
0.0453461
0.0429613
0.0405879
0.0382725
0.0360446
0.0339221
0.0319152
0.0300288
0.0282636
0.0266175
0.0250866
0.0236687
0.0566841
0.0567047
0.0561111
0.0545207
0.0523128
0.0498299
0.0472303
0.0446239
0.0420865
0.0396549
0.0373465
0.0351705
0.0331308
0.0312262
0.0294528
0.0278052
0.0262778
0.0248694
0.0600943
0.0612785
0.0603848
0.0578966
0.0551392
0.0522305
0.0491914
0.0462148
0.0434089
0.0407851
0.0383375
0.0360635
0.0339572
0.0320086
0.0302071
0.0285419
0.0270034
0.025591
0.0572859
0.0673543
0.0672376
0.0626823
0.0586341
0.0548644
0.0511262
0.0476451
0.04449
0.0416117
0.0389752
0.0365625
0.0343543
0.0323298
0.0304715
0.0287639
0.0271952
0.0257692
0.0310699
0.0635567
0.0700153
0.0662129
0.0612898
0.0563258
0.051821
0.0479759
0.0446336
0.0416457
0.038953
0.0365193
0.0343081
0.0322894
0.0304413
0.0287449
0.027181
0.0257379
0.0368528
0.0579394
0.0627654
0.0639789
0.060267
0.0545643
0.0495923
0.0456616
0.042331
0.0393797
0.0367539
0.0344081
0.0322913
0.0303658
0.0286091
0.0270043
0.0255333
0.0241973
0.341207
0.171052
0.0998685
0.0803276
0.0696018
0.0606331
0.0541924
0.0495297
0.045657
0.0422208
0.0391678
0.0364563
0.0340284
0.0318409
0.0298652
0.0280866
0.0264847
0.0250859
-0.0262765
-0.0263152
-0.0264579
-0.0266894
-0.0269687
-0.027279
-0.0276235
-0.0280118
-0.0284541
-0.0289586
-0.0295315
-0.0301776
-0.0309016
-0.0317091
-0.0326066
-0.0335975
-0.0346774
-0.035832
-0.0370336
-0.0382401
-0.0393969
-0.0404406
-0.0413022
-0.0419116
-0.0422007
-0.0421051
-0.0415665
-0.0405333
-0.0389614
-0.0368144
-0.0340653
-0.0307019
-0.026731
-0.0221617
-0.0169727
-0.0111639
-0.00478429
0.00211489
0.00948054
0.0172546
0.0253738
0.0337709
0.0423759
0.051118
0.0599274
0.0687371
0.0774819
0.0860998
0.0945378
0.102749
0.110691
0.118329
0.125632
0.13258
0.139155
0.145348
0.151153
0.156571
0.161605
0.166263
0.170559
0.174509
0.178122
0.181408
0.184385
0.187071
0.189484
0.191642
0.193562
0.195262
0.196757
0.198065
0.199198
0.200173
0.201001
0.201696
0.202269
0.202731
0.20309
0.203357
0.20354
0.203645
0.203679
0.203648
0.203558
0.203413
0.203217
0.202974
0.202688
0.202362
0.201999
0.201605
0.201186
0.200751
0.200323
0.199913
0.199617
0.199398
0.199929
0.200238
-0.0262122
-0.0262742
-0.0264058
-0.0265945
-0.026814
-0.0270558
-0.0273301
-0.0276508
-0.0280269
-0.0284626
-0.0289651
-0.0295458
-0.0302153
-0.030985
-0.0318638
-0.0328565
-0.033959
-0.035154
-0.0364086
-0.0376762
-0.0388988
-0.0400109
-0.0409433
-0.041627
-0.0419953
-0.0419859
-0.0415423
-0.0406141
-0.0391583
-0.0371389
-0.0345286
-0.0313094
-0.027469
-0.0229966
-0.0179083
-0.0122365
-0.00600703
0.000743374
0.00796697
0.0156086
0.0236071
0.0318968
0.040409
0.0490738
0.0578219
0.0665872
0.0753038
0.0839076
0.0923461
0.100573
0.108543
0.116221
0.123574
0.130581
0.137223
0.143489
0.149373
0.154873
0.159992
0.164738
0.169115
0.173129
0.176797
0.180142
0.183179
0.185925
0.188397
0.190615
0.192593
0.194349
0.1959
0.197261
0.198446
0.199469
0.200344
0.201084
0.201699
0.2022
0.202598
0.2029
0.203116
0.203252
0.203315
0.203312
0.203247
0.203126
0.202952
0.20273
0.202463
0.202155
0.201809
0.20143
0.201026
0.200606
0.20019
0.199792
0.199512
0.199296
0.199826
0.199999
-0.0259788
-0.0261037
-0.0262722
-0.0264341
-0.0265751
-0.0267185
-0.0268909
-0.027111
-0.0273933
-0.027752
-0.0282024
-0.0287602
-0.0294398
-0.0302506
-0.0311945
-0.0322656
-0.0334481
-0.0347142
-0.0360251
-0.0373327
-0.0385814
-0.0397107
-0.0406579
-0.0413603
-0.0417567
-0.0417892
-0.041404
-0.0405525
-0.0391918
-0.0372858
-0.0348059
-0.031732
-0.0280482
-0.0237441
-0.018832
-0.0133389
-0.00729041
-0.000720818
0.00632572
0.0137971
0.0216346
0.0297749
0.0381511
0.0466945
0.0553369
0.0640133
0.0726586
0.0812089
0.0896104
0.0978168
0.105783
0.11347
0.120848
0.127892
0.134582
0.140907
0.146857
0.152431
0.15763
0.162456
0.166919
0.171029
0.174801
0.178248
0.181387
0.184233
0.186802
0.189113
0.191183
0.193026
0.19466
0.196101
0.197361
0.198457
0.199401
0.200205
0.200881
0.20144
0.201891
0.202244
0.202507
0.202687
0.202792
0.202827
0.202798
0.20271
0.202567
0.202374
0.202134
0.20185
0.201527
0.20117
0.200787
0.200385
0.199987
0.199602
0.199337
0.199107
0.199594
0.199496
-0.0255586
-0.0257587
-0.026015
-0.0262057
-0.0263234
-0.0264261
-0.026557
-0.026744
-0.0270087
-0.0273708
-0.0278489
-0.028459
-0.0292116
-0.0301092
-0.0311454
-0.0323049
-0.0335635
-0.0348887
-0.0362408
-0.0375733
-0.0388347
-0.0399697
-0.0409208
-0.0416302
-0.0420407
-0.0420971
-0.0417472
-0.040943
-0.0396414
-0.0378055
-0.0354051
-0.032418
-0.0288285
-0.0246296
-0.0198302
-0.0144508
-0.00851655
-0.002061
0.00487318
0.0122354
0.0199687
0.0280109
0.0362964
0.0447573
0.0533263
0.0619393
0.0705308
0.0790382
0.087409
0.0955955
0.103552
0.11124
0.118628
0.125692
0.132411
0.138771
0.144765
0.150388
0.155641
0.160528
0.165058
0.169242
0.173092
0.176617
0.179834
0.182756
0.185402
0.187787
0.189928
0.191842
0.193544
0.195049
0.196372
0.197527
0.198528
0.199386
0.200114
0.200722
0.201219
0.201616
0.20192
0.202139
0.202279
0.202349
0.202351
0.202293
0.202178
0.202011
0.201795
0.201533
0.201232
0.200894
0.200528
0.200141
0.199756
0.199378
0.199112
0.198847
0.199229
0.198823
-0.0250145
-0.0252963
-0.025686
-0.0259589
-0.0261122
-0.026238
-0.026394
-0.0266154
-0.0269282
-0.027354
-0.02791
-0.0286088
-0.0294554
-0.0304466
-0.0315703
-0.0328066
-0.034128
-0.0355003
-0.0368839
-0.0382345
-0.0395034
-0.0406393
-0.0415885
-0.0422966
-0.0427091
-0.0427729
-0.042437
-0.0416538
-0.0403799
-0.0385777
-0.0362162
-0.0332721
-0.02973
-0.0255843
-0.0208414
-0.0155184
-0.00964011
-0.0032401
0.00363938
0.0109483
0.0186302
0.0266234
0.0348628
0.0432812
0.0518119
0.0603908
0.0689513
0.0774335
0.0857866
0.0939608
0.10191
0.109598
0.116992
0.124066
0.130801
0.137184
0.143204
0.148859
0.154149
0.159076
0.16365
0.16788
0.171776
0.17535
0.178616
0.181589
0.184286
0.186721
0.188913
0.190876
0.192626
0.194178
0.195547
0.196746
0.19779
0.198689
0.199456
0.200102
0.200635
0.201066
0.201403
0.201652
0.201822
0.201919
0.201948
0.201914
0.201822
0.201676
0.20148
0.201238
0.200953
0.20063
0.200278
0.199902
0.199524
0.199144
0.198863
0.198548
0.198792
0.198104
-0.0244589
-0.0248233
-0.0253654
-0.0257478
-0.0259709
-0.0261568
-0.026376
-0.0266683
-0.0270621
-0.0275783
-0.0282315
-0.0290298
-0.0299735
-0.0310548
-0.0322583
-0.0335614
-0.0349355
-0.0363464
-0.0377556
-0.0391205
-0.0403952
-0.0415311
-0.0424774
-0.0431818
-0.0435919
-0.0436555
-0.0433222
-0.0425446
-0.0412792
-0.0394879
-0.0371392
-0.0342088
-0.0306822
-0.0265535
-0.0218285
-0.0165229
-0.0106617
-0.00427859
0.0025838
0.00987532
0.0175394
0.0255145
0.0337357
0.0421358
0.0506493
0.0592104
0.0677527
0.0762192
0.0845603
0.0927247
0.100667
0.108351
0.115744
0.122821
0.129563
0.135956
0.141991
0.147664
0.152974
0.157926
0.162526
0.166784
0.17071
0.174316
0.177616
0.180624
0.183356
0.185828
0.188056
0.190055
0.191842
0.19343
0.194835
0.196069
0.197147
0.198079
0.198878
0.199554
0.200117
0.200576
0.20094
0.201216
0.20141
0.20153
0.201582
0.201569
0.201497
0.201369
0.20119
0.200964
0.200693
0.200384
0.200041
0.199672
0.199296
0.198909
0.198603
0.198228
0.198323
0.19739
-0.0240059
-0.0244486
-0.0251314
-0.0256275
-0.0259377
-0.0262042
-0.0265061
-0.026886
-0.027373
-0.0279864
-0.0287379
-0.0296316
-0.0306644
-0.0318257
-0.0330977
-0.0344571
-0.035875
-0.0373179
-0.0387489
-0.040127
-0.0414085
-0.0425462
-0.0434912
-0.0441924
-0.0445982
-0.044657
-0.0443188
-0.0435358
-0.0422643
-0.0404661
-0.0381093
-0.0351699
-0.0316336
-0.0274947
-0.0227589
-0.0174421
-0.0115697
-0.00517619
0.00169515
0.00899356
0.0166621
0.024639
0.0328592
0.0412559
0.049764
0.058316
0.0668464
0.0753013
0.0836315
0.0917852
0.0997176
0.107392
0.114777
0.121849
0.128589
0.134983
0.141021
0.1467
0.15202
0.156984
0.161599
0.165873
0.169818
0.173445
0.176767
0.1798
0.182558
0.185057
0.187313
0.18934
0.191155
0.192772
0.194205
0.195468
0.196573
0.197532
0.198358
0.19906
0.199648
0.200132
0.200519
0.200817
0.201033
0.201174
0.201245
0.201251
0.201196
0.201085
0.200921
0.200709
0.200451
0.200152
0.199818
0.199453
0.199076
0.198676
0.198338
0.197898
0.197843
0.196697
-0.0237436
-0.0242509
-0.0250402
-0.0256363
-0.026036
-0.0263887
-0.0267776
-0.0272465
-0.0278241
-0.0285283
-0.029368
-0.0303446
-0.0314524
-0.0326793
-0.0340068
-0.0354115
-0.0368649
-0.0383349
-0.0397854
-0.0411769
-0.0424666
-0.0436084
-0.0445539
-0.0452526
-0.0456531
-0.0457037
-0.0453541
-0.0445565
-0.043267
-0.0414472
-0.0390653
-0.0360982
-0.0325317
-0.0283612
-0.0235929
-0.0182434
-0.0123391
-0.00591571
0.000982582
0.00830421
0.0159916
0.0239826
0.032212
0.0406135
0.0491216
0.0576681
0.0661891
0.0746327
0.0829499
0.0910896
0.0990072
0.106666
0.114038
0.121098
0.127827
0.134212
0.140245
0.145921
0.15124
0.156207
0.160827
0.165109
0.169064
0.172703
0.17604
0.179089
0.181865
0.184383
0.18666
0.188709
0.190546
0.192186
0.193642
0.194927
0.196056
0.197038
0.197886
0.198611
0.199221
0.199725
0.200133
0.200451
0.200686
0.200845
0.200933
0.200956
0.200917
0.200821
0.200671
0.200471
0.200225
0.199935
0.199607
0.199244
0.198862
0.198446
0.198071
0.197564
0.197365
0.196035
-0.0237236
-0.024267
-0.0251183
-0.0257884
-0.0262663
-0.0266978
-0.0271658
-0.0277141
-0.0283702
-0.0291501
-0.0300611
-0.0311028
-0.0322686
-0.0335457
-0.0349159
-0.0363557
-0.0378375
-0.03933
-0.0407982
-0.0422031
-0.0435021
-0.0446494
-0.0455965
-0.0462925
-0.0466856
-0.0467238
-0.0463563
-0.0455352
-0.0442165
-0.042362
-0.0399405
-0.0369302
-0.0333173
-0.0290987
-0.0242818
-0.0188845
-0.0129345
-0.00646869
0.000467429
0.00782139
0.0155349
0.0235454
0.0317876
0.0401959
0.0487038
0.0572436
0.0657536
0.0741822
0.0824818
0.0906024
0.098499
0.106137
0.113487
0.120526
0.127237
0.133605
0.139624
0.145289
0.1506
0.15556
0.160178
0.16446
0.168417
0.172062
0.175407
0.178466
0.181254
0.183786
0.186078
0.188144
0.189998
0.191656
0.193131
0.194436
0.195583
0.196586
0.197453
0.198197
0.198826
0.199349
0.199775
0.200111
0.200364
0.200539
0.200644
0.200681
0.200657
0.200575
0.200438
0.200249
0.200012
0.19973
0.199408
0.199045
0.198656
0.198222
0.197807
0.197231
0.196897
0.195408
-0.0239488
-0.0244975
-0.0253639
-0.0260752
-0.026611
-0.0271056
-0.0276374
-0.0282481
-0.0289637
-0.0297993
-0.0307612
-0.0318487
-0.0330551
-0.0343676
-0.035768
-0.0372335
-0.038737
-0.0402479
-0.0417313
-0.0431484
-0.0444561
-0.0456082
-0.0465552
-0.0472456
-0.0476267
-0.0476459
-0.0472522
-0.0463974
-0.045038
-0.0431363
-0.0406626
-0.037596
-0.0339243
-0.0296458
-0.0247698
-0.0193156
-0.0133122
-0.00679836
0.000179526
0.00756795
0.015308
0.0233366
0.0315888
0.0399993
0.0485014
0.0570288
0.0655221
0.0739297
0.0822048
0.0902981
0.0981648
0.105772
0.113093
0.120104
0.126787
0.133131
0.139128
0.144773
0.150069
0.155017
0.159625
0.163901
0.167855
0.171499
0.174846
0.17791
0.180706
0.183247
0.18555
0.187628
0.189497
0.191169
0.19266
0.193981
0.195146
0.196165
0.19705
0.197811
0.198457
0.198997
0.19944
0.199792
0.200061
0.200252
0.200371
0.200423
0.200413
0.200343
0.200218
0.20004
0.199812
0.199537
0.199218
0.198855
0.198457
0.198003
0.197547
0.196905
0.196443
0.194822
-0.0243885
-0.0249148
-0.0257541
-0.0264729
-0.0270419
-0.0275779
-0.0281522
-0.0288037
-0.0295567
-0.0304262
-0.031419
-0.0325345
-0.0337654
-0.0350988
-0.0365171
-0.0379985
-0.0395169
-0.0410409
-0.0425354
-0.0439608
-0.0452733
-0.0464254
-0.0473664
-0.0480437
-0.048404
-0.048394
-0.0479627
-0.0470623
-0.04565
-0.0436892
-0.0411524
-0.0380195
-0.0342803
-0.0299352
-0.0249951
-0.0194809
-0.0134237
-0.00686352
0.000152492
0.00757011
0.0153301
0.0233693
0.0316234
0.040027
0.0485132
0.0570182
0.065485
0.0738619
0.0821023
0.0901572
0.0979834
0.105551
0.112832
0.119805
0.126453
0.132764
0.138731
0.144351
0.149624
0.154553
0.159146
0.16341
0.167356
0.170995
0.17434
0.177405
0.180204
0.182751
0.185062
0.18715
0.189029
0.190714
0.192218
0.193554
0.194733
0.195768
0.196668
0.197445
0.198107
0.198663
0.199122
0.199489
0.199773
0.199979
0.200113
0.200178
0.200181
0.200123
0.200009
0.199842
0.199623
0.199354
0.199038
0.198673
0.198265
0.19779
0.197293
0.196587
0.196008
0.194275
-0.0249943
-0.0254755
-0.0262525
-0.0269465
-0.0275209
-0.0280732
-0.0286659
-0.0293352
-0.0301048
-0.0309893
-0.0319949
-0.0331206
-0.0343591
-0.0356985
-0.0371226
-0.0386103
-0.0401346
-0.0416635
-0.0431608
-0.0445857
-0.0458934
-0.0470346
-0.0479576
-0.0486089
-0.0489345
-0.0488812
-0.0483984
-0.0474391
-0.0459616
-0.043932
-0.0413247
-0.0381205
-0.0343111
-0.0298991
-0.0248972
-0.0193279
-0.0132232
-0.00662447
0.000420253
0.00785625
0.015624
0.0236608
0.0319025
0.0402841
0.0487394
0.0572086
0.0656352
0.0739683
0.0821612
0.0901643
0.0979381
0.105454
0.112686
0.119612
0.126216
0.132486
0.138416
0.144002
0.149246
0.154151
0.158723
0.16297
0.166903
0.170534
0.173873
0.176936
0.179736
0.182286
0.184602
0.186697
0.188586
0.190281
0.191797
0.193145
0.194338
0.195387
0.196302
0.197094
0.197771
0.198342
0.198816
0.199199
0.199497
0.199717
0.199865
0.199944
0.199958
0.199913
0.19981
0.199652
0.199441
0.199179
0.198866
0.198498
0.198081
0.197584
0.197047
0.196281
0.195595
0.193769
-0.0257094
-0.0261296
-0.0268177
-0.0274573
-0.0280084
-0.0285504
-0.0291383
-0.029805
-0.0305722
-0.0314526
-0.0324517
-0.0335689
-0.034798
-0.0361287
-0.0375452
-0.0390255
-0.0405416
-0.0420607
-0.043545
-0.0449534
-0.046239
-0.0473516
-0.0482387
-0.0488465
-0.0491209
-0.0490093
-0.0484617
-0.0474322
-0.0458817
-0.0437787
-0.0410976
-0.0378217
-0.0339449
-0.0294716
-0.0244163
-0.0188026
-0.0126635
-0.00604146
0.00101522
0.00845192
0.0162089
0.0242239
0.0324332
0.0407723
0.0491791
0.0575961
0.0659652
0.0742391
0.0823691
0.0903052
0.0980142
0.105468
0.112639
0.119508
0.126058
0.132279
0.138164
0.143711
0.14892
0.153794
0.158341
0.162568
0.166485
0.170103
0.173434
0.176492
0.179289
0.181841
0.18416
0.186261
0.188158
0.189863
0.191389
0.19275
0.193955
0.195018
0.195947
0.196753
0.197445
0.198031
0.198519
0.198916
0.199229
0.199463
0.199624
0.199716
0.199744
0.19971
0.199618
0.19947
0.199267
0.19901
0.1987
0.19833
0.197902
0.197386
0.196809
0.195988
0.195203
0.193303
-0.0264811
-0.0268306
-0.0274108
-0.0279707
-0.0284723
-0.0289799
-0.0295406
-0.0301828
-0.0309257
-0.0317804
-0.0327519
-0.0338401
-0.0350398
-0.0363406
-0.0377266
-0.0391753
-0.0406598
-0.0421461
-0.0435959
-0.0449658
-0.0462079
-0.0472707
-0.0481015
-0.0486466
-0.048853
-0.0486689
-0.0480455
-0.0469386
-0.0453125
-0.0431362
-0.0403854
-0.0370457
-0.0331125
-0.0285922
-0.0235006
-0.0178617
-0.0117089
-0.00508594
0.00195947
0.00937312
0.0170946
0.0250626
0.0332139
0.0414874
0.0498251
0.0581687
0.0664621
0.0746593
0.0827086
0.0905632
0.0981945
0.105573
0.112673
0.119475
0.125963
0.132127
0.137961
0.143462
0.14863
0.153471
0.157988
0.162191
0.166088
0.169691
0.173011
0.176062
0.178857
0.181408
0.18373
0.185836
0.187739
0.189453
0.190989
0.192361
0.193579
0.194655
0.195598
0.196418
0.197124
0.197725
0.198227
0.198639
0.198967
0.199215
0.199389
0.199495
0.199534
0.199512
0.199431
0.199293
0.199099
0.198848
0.19854
0.198168
0.197731
0.197195
0.196582
0.19571
0.194835
0.192876
-0.0273068
-0.0275773
-0.0280318
-0.0284859
-0.028909
-0.0293527
-0.0298567
-0.0304454
-0.0311341
-0.031932
-0.0328432
-0.0338671
-0.0349997
-0.0362321
-0.0375496
-0.0389305
-0.040348
-0.04177
-0.043157
-0.0444632
-0.0456371
-0.0466272
-0.0473817
-0.047848
-0.0479739
-0.0477089
-0.0470062
-0.0458246
-0.044128
-0.0418859
-0.039077
-0.0356887
-0.0317175
-0.0271717
-0.0220682
-0.0164303
-0.0102915
-0.00369684
0.00330592
0.0106633
0.018314
0.0262015
0.0342672
0.0424506
0.0506937
0.0589384
0.0671344
0.0752324
0.0831786
0.0909339
0.0984706
0.105759
0.112774
0.119496
0.125911
0.132009
0.137784
0.143233
0.148356
0.153157
0.157641
0.161817
0.165692
0.169278
0.172587
0.17563
0.17842
0.18097
0.183294
0.185405
0.187315
0.189037
0.190584
0.191968
0.193199
0.194288
0.195245
0.19608
0.196801
0.197417
0.197935
0.198362
0.198704
0.198967
0.199155
0.199274
0.199327
0.199317
0.199248
0.19912
0.198934
0.19869
0.198385
0.198012
0.197566
0.197012
0.196365
0.195448
0.194492
0.192487
-0.0281104
-0.0283007
-0.0286198
-0.0289433
-0.0292566
-0.0296035
-0.0300159
-0.030513
-0.0311052
-0.0317984
-0.0325979
-0.0335061
-0.0345229
-0.0356426
-0.0368523
-0.0381305
-0.0394512
-0.0407834
-0.0420841
-0.0433031
-0.0443885
-0.0452901
-0.045958
-0.0463401
-0.0463849
-0.046044
-0.0452709
-0.0440255
-0.0422735
-0.0399866
-0.0371443
-0.033735
-0.0297558
-0.0252163
-0.0201342
-0.0145315
-0.00844227
-0.00191293
0.00500718
0.0122709
0.0198219
0.027603
0.0355579
0.0436271
0.0517517
0.0598761
0.0679526
0.0759283
0.0837525
0.0913929
0.0988206
0.106006
0.112926
0.11956
0.125896
0.131921
0.137632
0.143024
0.148098
0.152857
0.157306
0.161452
0.165304
0.168873
0.172168
0.175202
0.177987
0.180536
0.182862
0.184977
0.186894
0.188625
0.190182
0.191577
0.192821
0.193923
0.194895
0.195745
0.196481
0.197112
0.197645
0.198087
0.198444
0.198722
0.198924
0.199057
0.199123
0.199126
0.199068
0.19895
0.198774
0.198536
0.198235
0.197861
0.197407
0.196838
0.19616
0.195203
0.194173
0.192136
-0.0288237
-0.028931
-0.0291119
-0.0292919
-0.0294718
-0.0296884
-0.0299666
-0.0303199
-0.0307573
-0.031289
-0.0319298
-0.0326857
-0.0335597
-0.0345476
-0.0356364
-0.0368073
-0.0380304
-0.0392686
-0.0404766
-0.0416058
-0.042606
-0.043428
-0.0440228
-0.0443375
-0.0443213
-0.0439255
-0.0431042
-0.0418183
-0.0400367
-0.0377313
-0.0348821
-0.0314788
-0.027519
-0.0230126
-0.017977
-0.0124358
-0.0064261
1.25014e-05
0.00683325
0.0139887
0.0214293
0.0290943
0.0369246
0.0448639
0.0528561
0.0608508
0.0687978
0.0766436
0.0843444
0.0918685
0.0991862
0.106269
0.113093
0.11964
0.125896
0.131851
0.137498
0.142834
0.147859
0.152576
0.15699
0.161107
0.164936
0.168486
0.171768
0.174793
0.177572
0.180119
0.182446
0.184565
0.186488
0.188227
0.189794
0.1912
0.192456
0.193572
0.194557
0.195421
0.196171
0.196817
0.197365
0.197821
0.198193
0.198484
0.198701
0.198847
0.198926
0.198941
0.198895
0.198788
0.19862
0.19839
0.198093
0.197718
0.197258
0.196675
0.195969
0.194978
0.193882
0.191823
-0.0294935
-0.0295029
-0.0295341
-0.029546
-0.0295501
-0.0295766
-0.0296552
-0.0298068
-0.0300488
-0.0303957
-0.0308668
-0.0314656
-0.0321898
-0.0330478
-0.0340272
-0.0350983
-0.0362269
-0.0373759
-0.0385018
-0.0395569
-0.0404892
-0.0412495
-0.0417902
-0.0420555
-0.0419947
-0.041561
-0.0407094
-0.0394017
-0.0376086
-0.0353023
-0.0324634
-0.0290834
-0.0251621
-0.020706
-0.0157326
-0.0102714
-0.0043559
0.0019832
0.00870085
0.0157431
0.0230609
0.0305963
0.0382924
0.0460951
0.0539519
0.0618133
0.069627
0.0773443
0.084925
0.0923354
0.0995452
0.106527
0.113258
0.11972
0.125899
0.131784
0.137369
0.14265
0.147628
0.152305
0.156685
0.160773
0.164579
0.168112
0.17138
0.174396
0.17717
0.179715
0.182043
0.184165
0.186093
0.18784
0.189416
0.190833
0.1921
0.193228
0.194227
0.195104
0.195869
0.196529
0.197091
0.197561
0.197947
0.198252
0.198482
0.198641
0.198733
0.198761
0.198726
0.19863
0.198471
0.198248
0.197956
0.197583
0.197118
0.196523
0.195793
0.194774
0.193618
0.191549
-0.0301751
-0.0300404
-0.0298876
-0.0296666
-0.0294145
-0.0291827
-0.0290299
-0.0289808
-0.0290351
-0.0291998
-0.0294913
-0.029931
-0.0305213
-0.0312674
-0.0321544
-0.0331403
-0.0341922
-0.0352784
-0.0363493
-0.0373539
-0.0382399
-0.0389564
-0.0394562
-0.0396842
-0.03959
-0.039128
-0.038257
-0.0369392
-0.0351427
-0.0328433
-0.0300239
-0.0266759
-0.0228011
-0.0184051
-0.0135045
-0.00812791
-0.00230354
0.00393505
0.0105409
0.0174623
0.0246515
0.0320533
0.039614
0.0472827
0.0550071
0.0627363
0.0704199
0.0780133
0.085477
0.0927768
0.0998823
0.106767
0.113408
0.119788
0.125893
0.131711
0.137237
0.142466
0.147399
0.152037
0.156383
0.160445
0.164229
0.167744
0.171
0.174007
0.176776
0.179319
0.181647
0.183772
0.185706
0.18746
0.189045
0.190472
0.19175
0.192891
0.193902
0.194793
0.195571
0.196245
0.196821
0.197305
0.197705
0.198024
0.198267
0.19844
0.198544
0.198584
0.198561
0.198476
0.198327
0.198112
0.197825
0.197454
0.196987
0.196382
0.195633
0.19459
0.193381
0.191313
-0.0309363
-0.030543
-0.0301122
-0.0295407
-0.0289831
-0.0285131
-0.0281566
-0.0279099
-0.0277361
-0.0276865
-0.0278118
-0.0281195
-0.0286125
-0.0292856
-0.0301161
-0.0310595
-0.0320769
-0.033134
-0.0341761
-0.0351483
-0.0360043
-0.036692
-0.0371585
-0.0373547
-0.0372333
-0.036748
-0.0358612
-0.034537
-0.0327408
-0.0304515
-0.0276546
-0.0243414
-0.0205144
-0.0161807
-0.0113529
-0.00605656
-0.000323941
0.00580977
0.0123008
0.0191009
0.0261638
0.0334377
0.040869
0.0484075
0.0560025
0.0636036
0.0711634
0.0786384
0.0859897
0.0931832
0.100189
0.106981
0.113537
0.119839
0.125872
0.131627
0.137097
0.142277
0.147167
0.151768
0.156083
0.160119
0.163882
0.167381
0.170624
0.173623
0.176387
0.178928
0.181257
0.183386
0.185325
0.187086
0.188679
0.190116
0.191406
0.192558
0.193581
0.194485
0.195277
0.195964
0.196554
0.197052
0.197465
0.197798
0.198055
0.198241
0.198358
0.19841
0.198399
0.198325
0.198186
0.19798
0.1977
0.197332
0.196864
0.196253
0.195487
0.194427
0.193172
0.191113
-0.0318566
-0.0309615
-0.0300712
-0.0291112
-0.0283163
-0.0276286
-0.0269634
-0.0264102
-0.0259966
-0.0257695
-0.0258029
-0.0260575
-0.026521
-0.0271895
-0.0280208
-0.0289715
-0.0299959
-0.031046
-0.0320749
-0.0330302
-0.0338671
-0.0345341
-0.0349729
-0.0351413
-0.0349955
-0.0344893
-0.033587
-0.0322555
-0.0304613
-0.0281828
-0.0254073
-0.0221277
-0.0183471
-0.0140718
-0.00931326
-0.00409747
0.00154257
0.00757324
0.0139552
0.0206412
0.027584
0.0347356
0.0420436
0.0494572
0.0569285
0.0644085
0.071851
0.0792135
0.086458
0.0935507
0.100462
0.107166
0.113641
0.119869
0.125836
0.131531
0.136947
0.142081
0.14693
0.151495
0.155781
0.159793
0.163536
0.167019
0.170251
0.173242
0.176001
0.178541
0.180871
0.183002
0.184947
0.186715
0.188317
0.189763
0.191064
0.192227
0.193263
0.19418
0.194985
0.195686
0.196289
0.196801
0.197228
0.197574
0.197845
0.198043
0.198174
0.198239
0.198239
0.198177
0.198049
0.197852
0.197579
0.197217
0.196749
0.196136
0.195358
0.194285
0.192991
0.190949
-0.0330468
-0.031167
-0.0297161
-0.0284712
-0.0272817
-0.0261251
-0.0250651
-0.0242448
-0.0237276
-0.0234709
-0.0235184
-0.0238277
-0.0243615
-0.0250862
-0.0259582
-0.0269479
-0.0280052
-0.0290678
-0.0300973
-0.0310461
-0.0318686
-0.032517
-0.0329342
-0.0330787
-0.0329093
-0.0323832
-0.0314656
-0.0301256
-0.0283314
-0.026062
-0.0233065
-0.0200597
-0.0163228
-0.0121014
-0.00740962
-0.00227222
0.00328127
0.00921697
0.0154969
0.0220755
0.0289053
0.0359411
0.0431324
0.0504287
0.0577835
0.0651494
0.0724813
0.0797379
0.0868816
0.0938792
0.100702
0.107323
0.113722
0.11988
0.125784
0.131422
0.136788
0.141877
0.146687
0.15122
0.155478
0.159466
0.16319
0.166659
0.16988
0.172863
0.175618
0.178156
0.180487
0.182622
0.184572
0.186346
0.187957
0.189413
0.190724
0.191899
0.192947
0.193877
0.194695
0.195409
0.196026
0.196551
0.196992
0.197351
0.197635
0.197847
0.197991
0.198069
0.198082
0.198031
0.197914
0.197727
0.197463
0.197108
0.196643
0.19603
0.195245
0.194165
0.192839
0.190822
-0.0345882
-0.0309772
-0.0289658
-0.0271815
-0.0251591
-0.0234724
-0.022272
-0.0214612
-0.0210398
-0.0209426
-0.0211228
-0.0215632
-0.0222299
-0.0230546
-0.0239989
-0.0250442
-0.0261419
-0.0272294
-0.0282686
-0.029216
-0.0300273
-0.030658
-0.0310553
-0.031177
-0.0309844
-0.0304389
-0.0295065
-0.0281566
-0.0263611
-0.0241001
-0.0213637
-0.018147
-0.0144496
-0.0102777
-0.00564718
-0.000581238
0.00489236
0.0107402
0.016925
0.0234032
0.0301281
0.0370557
0.0441376
0.0513243
0.0585702
0.0658292
0.0730575
0.0802145
0.0872635
0.0941717
0.10091
0.107454
0.11378
0.119873
0.125717
0.131301
0.136619
0.141665
0.146439
0.15094
0.155171
0.159137
0.162844
0.166298
0.169509
0.172485
0.175236
0.177772
0.180104
0.182242
0.184197
0.185978
0.187597
0.189062
0.190384
0.191571
0.192631
0.193573
0.194404
0.195132
0.195762
0.196301
0.196755
0.197129
0.197426
0.197652
0.197809
0.197899
0.197925
0.197887
0.197782
0.197606
0.197352
0.197005
0.196546
0.195937
0.195148
0.194068
0.192718
0.190729
-0.0382898
-0.0293408
-0.0263102
-0.0240659
-0.0214654
-0.019748
-0.0188364
-0.0183329
-0.0181965
-0.0183879
-0.0187875
-0.0194035
-0.0202194
-0.0211621
-0.0221935
-0.0232991
-0.0244377
-0.0255513
-0.0266007
-0.0275473
-0.028349
-0.0289619
-0.0293387
-0.0294379
-0.0292226
-0.0286578
-0.0277099
-0.0263496
-0.0245516
-0.0222977
-0.0195777
-0.0163858
-0.0127226
-0.0085958
-0.00402074
0.000980449
0.00638087
0.0121478
0.0182449
0.0246298
0.0312577
0.038085
0.0450649
0.0521493
0.0592935
0.0664524
0.0735835
0.0806469
0.0876067
0.0944304
0.10109
0.107559
0.113817
0.119847
0.125634
0.131167
0.136439
0.141446
0.146184
0.150654
0.15486
0.158804
0.162494
0.165935
0.169135
0.172104
0.174851
0.177386
0.17972
0.181861
0.183821
0.185609
0.187236
0.188711
0.190044
0.191242
0.192314
0.193269
0.194113
0.194854
0.195499
0.196052
0.196519
0.196907
0.197218
0.197457
0.197628
0.197732
0.197771
0.197745
0.197652
0.197489
0.197246
0.196909
0.196459
0.195856
0.195069
0.193994
0.192626
0.190671
-0.042151
-0.0242767
-0.0195559
-0.018247
-0.0164924
-0.0155024
-0.0152614
-0.0152703
-0.0155037
-0.0160022
-0.0166489
-0.0174508
-0.0184065
-0.0194587
-0.0205729
-0.0217335
-0.0229084
-0.0240437
-0.0250993
-0.0260424
-0.0268323
-0.0274262
-0.0277811
-0.0278575
-0.0276196
-0.0270346
-0.0260702
-0.0246985
-0.0228959
-0.0206462
-0.0179386
-0.0147676
-0.0111349
-0.00704842
-0.0025232
0.00241932
0.00775284
0.0134455
0.0194615
0.0257603
0.032298
0.0390319
0.0459165
0.0529052
0.0599538
0.0670187
0.0740581
0.0810331
0.0879084
0.0946521
0.101236
0.107635
0.113828
0.119798
0.125531
0.131015
0.136244
0.141212
0.145916
0.150358
0.154539
0.158464
0.162137
0.165565
0.168756
0.171719
0.174463
0.176998
0.179333
0.181478
0.183444
0.18524
0.186876
0.188361
0.189704
0.190914
0.191999
0.192966
0.193824
0.194579
0.195237
0.195804
0.196286
0.196687
0.197012
0.197265
0.197449
0.197567
0.197619
0.197606
0.197527
0.197376
0.197145
0.19682
0.196381
0.195789
0.195008
0.193943
0.192566
0.190648
-0.024166
-0.0123753
-0.00954498
-0.0107292
-0.0109684
-0.0110966
-0.0115948
-0.0121704
-0.012808
-0.0136034
-0.0144933
-0.0154792
-0.0165662
-0.0177179
-0.0189087
-0.0201185
-0.0213205
-0.0224684
-0.0235224
-0.0244524
-0.025221
-0.025787
-0.0261109
-0.0261552
-0.025886
-0.025272
-0.024283
-0.0228928
-0.0210796
-0.0188282
-0.0161285
-0.0129757
-0.00937222
-0.00532631
-0.000852604
0.00402796
0.00928957
0.0149014
0.0208283
0.0270313
0.0334682
0.040097
0.0468735
0.053753
0.0606921
0.0676486
0.0745818
0.0814541
0.0882308
0.0948806
0.101376
0.107692
0.113809
0.119708
0.125376
0.130802
0.135979
0.140901
0.145565
0.149973
0.154125
0.158025
0.161679
0.165093
0.168274
0.17123
0.173971
0.176505
0.178843
0.180994
0.182967
0.184772
0.186419
0.187917
0.189274
0.190499
0.1916
0.192584
0.193459
0.194231
0.194906
0.195491
0.19599
0.196409
0.196751
0.197021
0.197223
0.197357
0.197427
0.197431
0.197369
0.197236
0.197023
0.196715
0.196293
0.19572
0.194954
0.19391
0.192535
0.190666
-0.0132148
-0.00676345
-0.00398204
-0.00529487
-0.00640246