/*--------------------------------*- C++ -*----------------------------------*\
| =========                 |                                                 |
| \\      /  F ield         | OpenFOAM: The Open Source CFD Toolbox           |
|  \\    /   O peration     | Version:  5.x                                   |
|   \\  /    A nd           | Web:      www.OpenFOAM.org                      |
|    \\/     M anipulation  |                                                 |
\*---------------------------------------------------------------------------*/
FoamFile
{
    version     2.0;
    format      ascii;
    class       volScalarField;
    location    "231";
    object      k;
}
// * * * * * * * * * * * * * * * * * * * * * * * * * * * * * * * * * * * * * //

dimensions      [0 2 -2 0 0 0 0];

internalField   nonuniform List<scalar> 
5760
(
0.371474
0.366488
0.36404
0.35991
0.357637
0.353793
0.35211
0.349082
0.348202
0.346548
0.346432
0.346555
0.347263
0.348383
0.350256
0.352483
0.354899
0.360619
0.392458
0.42145
0.429421
0.429454
0.431311
0.433558
0.440662
0.447547
0.462254
0.472282
0.492827
0.504988
0.529387
0.542806
0.56932
0.583249
0.61162
0.622373
0.377941
0.384382
0.396101
0.401836
0.404679
0.405537
0.406373
0.406768
0.408043
0.408874
0.411247
0.412696
0.416113
0.418366
0.422191
0.425859
0.429652
0.434416
0.374668
0.374694
0.375888
0.377617
0.379519
0.380733
0.381907
0.382542
0.383319
0.383717
0.384342
0.384754
0.385314
0.385893
0.386411
0.387189
0.387808
0.388864
0.374601
0.373871
0.373312
0.372943
0.37281
0.372814
0.372859
0.372897
0.372981
0.373018
0.373071
0.373112
0.373142
0.373191
0.373229
0.373275
0.373379
0.373555
0.374606
0.373848
0.373122
0.372463
0.371842
0.371306
0.370801
0.370377
0.369958
0.369624
0.369263
0.368998
0.368676
0.36847
0.368173
0.368021
0.367733
0.367643
0.374605
0.37385
0.373112
0.372427
0.371753
0.371135
0.370525
0.369976
0.369427
0.368942
0.368448
0.36802
0.367576
0.367198
0.366797
0.366464
0.3661
0.365805
0.374606
0.373847
0.373112
0.37242
0.371749
0.371117
0.370504
0.369928
0.369368
0.368843
0.368331
0.367853
0.367387
0.366952
0.366527
0.366131
0.365744
0.365383
0.374608
0.373845
0.373113
0.372417
0.371748
0.371112
0.370501
0.369919
0.369361
0.368828
0.368317
0.36783
0.367363
0.366917
0.366489
0.366081
0.365688
0.365314
0.374608
0.373844
0.373113
0.372415
0.371747
0.371109
0.370499
0.369915
0.369357
0.368823
0.368312
0.367824
0.367356
0.366908
0.366479
0.366069
0.365675
0.365299
0.374608
0.373843
0.373112
0.372414
0.371746
0.371107
0.370496
0.369912
0.369354
0.368819
0.368308
0.367818
0.367349
0.366901
0.366471
0.36606
0.365666
0.365288
0.374608
0.373843
0.373112
0.372413
0.371745
0.371106
0.370494
0.36991
0.369351
0.368815
0.368303
0.367813
0.367344
0.366895
0.366465
0.366054
0.36566
0.365282
0.374608
0.373843
0.373112
0.372413
0.371744
0.371105
0.370494
0.369909
0.36935
0.368816
0.368304
0.367814
0.367345
0.366896
0.366467
0.366054
0.36566
0.365282
0.374608
0.373843
0.373112
0.372413
0.371745
0.371105
0.370493
0.369908
0.369349
0.368813
0.368303
0.367814
0.367347
0.366899
0.366472
0.366063
0.365672
0.365297
0.374609
0.373843
0.373113
0.372413
0.371746
0.371107
0.3705
0.369918
0.369365
0.368833
0.368327
0.36784
0.367377
0.36693
0.366506
0.366096
0.365706
0.365329
0.374609
0.373844
0.373119
0.372419
0.371775
0.371169
0.370615
0.370084
0.369594
0.369114
0.368669
0.368228
0.367819
0.367413
0.367036
0.366661
0.366315
0.365969
0.374601
0.373856
0.373229
0.372824
0.372534
0.37227
0.372018
0.371726
0.371457
0.371139
0.370868
0.370548
0.370295
0.369988
0.369764
0.369477
0.369286
0.369021
0.374648
0.375162
0.37647
0.378347
0.379326
0.380214
0.380553
0.380948
0.381212
0.38152
0.381961
0.382342
0.383018
0.383491
0.384373
0.384909
0.385947
0.386513
0.377865
0.384709
0.389056
0.393049
0.395492
0.400172
0.404135
0.41155
0.418154
0.427537
0.437154
0.447834
0.460112
0.471802
0.486306
0.498771
0.51517
0.528398
0.374165
0.368772
0.42036
0.519729
0.645727
0.774728
0.924234
1.0787
1.24848
1.42277
1.60717
1.79427
1.98669
2.17943
2.37338
2.56534
2.75525
2.94122
0.0742143
0.0917342
0.107094
0.110841
0.117988
0.118499
0.145913
0.151813
0.179797
0.153733
0.161627
0.180461
0.204216
0.235337
0.274776
0.323318
0.381259
0.448017
0.522643
0.604097
0.69099
0.782585
0.878308
0.977751
1.08068
1.18701
1.29673
1.40992
1.52669
1.64718
1.77152
1.89983
2.03222
2.16875
2.30947
2.45435
2.60336
2.75639
2.9133
3.0739
3.23794
3.40516
3.57522
3.74776
3.92237
4.09861
4.276
4.45403
4.63216
4.8098
4.98635
5.16113
5.33338
5.50224
5.66675
5.82589
5.97911
6.12814
6.27138
6.40849
6.5391
6.66263
6.77862
6.8866
6.98612
7.07682
7.15831
7.23033
7.29259
7.34494
7.38728
7.41962
7.44205
7.45473
7.45594
7.44492
7.42568
7.40047
7.36316
7.31604
7.25983
7.19493
7.12184
7.041
6.95293
6.85819
6.75742
6.65125
6.54036
6.42546
6.30725
6.18644
6.06392
5.9411
5.83816
5.77625
5.71973
5.65339
5.59682
5.36145
0.11886
0.141986
0.164524
0.189623
0.218
0.248771
0.283222
0.319336
0.360722
0.398506
0.447715
0.508045
0.577493
0.6551
0.741575
0.838132
0.94531
1.06285
1.19037
1.32745
1.47339
1.62791
1.79048
1.96087
2.13885
2.32431
2.5172
2.71759
2.92558
3.14137
3.36515
3.59714
3.83755
4.08655
4.3443
4.61086
4.88628
5.1705
5.46339
5.76475
6.0743
6.39166
6.71637
7.04787
7.38554
7.72867
8.07647
8.42806
8.78251
9.13881
9.49586
9.8525
10.2074
10.5593
10.9064
11.2468
11.5778
11.8965
12.2074
12.5087
12.7998
13.0795
13.3466
13.6003
13.8395
14.0633
14.2709
14.4616
14.6346
14.7894
14.9257
15.0432
15.1418
15.2215
15.2814
15.3152
15.3314
15.3365
15.3187
15.2803
15.223
15.1477
15.055
14.9456
14.8206
14.6808
14.5274
14.3616
14.1847
13.998
13.803
13.601
13.3936
13.1825
12.9733
12.7714
12.5707
12.3667
12.165
11.7676
0.173684
0.205768
0.237777
0.274286
0.314834
0.359575
0.410584
0.468914
0.534768
0.606598
0.687722
0.778941
0.879562
0.988952
1.10781
1.23742
1.37889
1.5328
1.69928
1.87799
2.06875
2.27099
2.48385
2.7069
2.93969
3.18195
3.43356
3.69453
3.96497
4.24505
4.53498
4.83495
5.14516
5.46578
5.79692
6.13864
6.49091
6.85365
7.22666
7.60967
8.0023
8.4041
8.81449
9.23279
9.65824
10.09
10.527
10.9684
11.4128
11.8591
12.306
12.7521
13.1959
13.6359
14.0704
14.4979
14.9169
15.3264
15.7256
16.1128
16.4867
16.8459
17.1889
17.5144
17.8211
18.108
18.3738
18.6177
18.8387
19.0361
19.2094
19.3582
19.4824
19.582
19.6561
19.6991
19.7178
19.7197
19.6928
19.6403
19.5635
19.4632
19.3405
19.1963
19.032
18.8486
18.6477
18.4309
18.1997
17.9559
17.7012
17.4376
17.167
16.8916
16.6159
16.3445
16.0743
15.8065
15.5392
15.1276
0.225704
0.270714
0.313726
0.360851
0.411703
0.468212
0.532803
0.606849
0.69035
0.782482
0.883582
0.993706
1.11287
1.24177
1.38191
1.53492
1.70199
1.88364
2.07979
2.29001
2.51357
2.74961
2.99763
3.25708
3.52754
3.8088
4.10078
4.40353
4.71722
5.04205
5.37826
5.72611
6.08583
6.45762
6.84163
7.23794
7.64654
8.06735
8.50019
8.94478
9.40072
9.8675
10.3445
10.8309
11.326
11.8286
12.3377
12.852
13.3702
13.891
14.4127
14.9337
15.4525
15.9673
16.4764
16.9782
17.471
17.9533
18.4233
18.8791
19.3191
19.7415
20.1446
20.5269
20.8869
21.223
21.5341
21.819
22.0765
22.306
22.5067
22.6781
22.8201
22.9326
23.0149
23.0615
23.0799
23.0754
23.0383
22.9711
22.8752
22.7517
22.6018
22.4267
22.2278
22.0067
21.7651
21.5046
21.2274
20.9354
20.6307
20.3154
19.992
19.6632
19.3329
19.0056
18.6805
18.362
18.0467
17.6262
0.256456
0.333125
0.392646
0.450624
0.510393
0.576227
0.650965
0.73589
0.830768
0.934779
1.04763
1.16965
1.30175
1.44539
1.60226
1.77377
1.96076
2.16342
2.38148
2.61439
2.86145
3.12204
3.39564
3.68182
3.98028
4.2909
4.61367
4.94871
5.29621
5.65643
6.02967
6.41627
6.81651
7.23065
7.65889
8.10135
8.55809
9.02906
9.5141
10.0129
10.5252
11.0503
11.5876
12.1362
12.6952
13.2634
13.8395
14.4223
15.01
15.6011
16.1939
16.7864
17.3768
17.9632
18.5436
19.116
19.6784
20.2287
20.7648
21.2847
21.7862
22.2674
22.7264
23.1612
23.5702
23.9517
24.3041
24.6263
24.9169
25.1751
25.3999
25.591
25.748
25.871
25.9591
26.0074
26.0243
26.0121
25.9638
25.8814
25.7663
25.6199
25.4434
25.2384
25.0064
24.7492
24.4688
24.1672
23.8466
23.5093
23.1576
22.7941
22.4214
22.0426
21.6616
21.2829
20.9076
20.5425
20.1848
19.748
0.279779
0.399693
0.473122
0.539609
0.606605
0.679343
0.760852
0.852422
0.953969
1.06497
1.18537
1.31593
1.458
1.6132
1.783
1.96847
2.1701
2.3879
2.62156
2.87063
3.1346
3.41302
3.7055
4.01177
4.33168
4.66519
5.0124
5.3735
5.74876
6.13852
6.54314
6.96303
7.39853
7.84999
8.31766
8.80174
9.30236
9.81951
10.3531
10.9028
11.4684
12.0491
12.6443
13.253
13.8742
14.5065
15.1486
15.7987
16.4552
17.1162
17.7796
18.4433
19.1051
19.7627
20.4139
21.0563
21.6874
22.3048
22.9061
23.4889
24.0509
24.5897
25.1032
25.5893
26.046
26.4714
26.8638
27.2218
27.544
27.8293
28.0769
28.286
28.4566
28.5885
28.681
28.7299
28.7442
28.7234
28.6629
28.5645
28.4297
28.2599
28.0567
27.8217
27.5569
27.2641
26.9455
26.6034
26.2403
25.8587
25.4612
25.0507
24.63
24.2026
23.7723
23.3442
22.9205
22.51
22.111
21.6504
0.308288
0.456222
0.545243
0.621451
0.695222
0.773272
0.859172
0.954587
1.05991
1.17516
1.30071
1.43758
1.58715
1.7509
1.93
2.1252
2.33683
2.56487
2.80912
3.06929
3.34508
3.63624
3.94258
4.264
4.60047
4.9521
5.31909
5.70172
6.10037
6.51546
6.94744
7.3968
7.86399
8.34941
8.85344
9.37635
9.91833
10.4795
11.0596
11.6587
12.2762
12.9115
13.5638
14.2321
14.9153
15.6117
16.3198
17.0377
17.7634
18.4947
19.2292
19.9646
20.6983
21.4277
22.15
22.8625
23.5623
24.2468
24.9131
25.5586
26.1807
26.7767
27.3443
27.8809
28.3845
28.8529
29.2844
29.6772
30.0299
30.3412
30.6103
30.8363
31.0192
31.1587
31.2544
31.3029
31.3133
31.2832
31.2096
31.0944
30.9391
30.7455
30.5152
30.2501
29.9523
29.6239
29.2674
28.8852
28.4801
28.0548
27.6122
27.1553
26.6873
26.212
25.7334
25.2567
24.7855
24.3297
23.8889
23.3998
0.228178
0.487077
0.604145
0.692068
0.772601
0.85503
0.943906
1.04154
1.14898
1.26681
1.39579
1.53699
1.6917
1.86112
2.04616
2.24742
2.46516
2.69946
2.95026
3.21749
3.50108
3.80098
4.1172
4.4498
4.79895
5.16489
5.54795
5.94855
6.36717
6.80434
7.26063
7.73664
8.23292
8.75
9.28834
9.8483
10.4301
11.034
11.6599
12.3075
12.9766
13.6663
14.3758
15.104
15.8494
16.6104
17.3851
18.1714
18.967
19.7692
20.5756
21.3832
22.1891
22.9904
23.7839
24.5665
25.335
26.0862
26.8171
27.5248
28.2062
28.8586
29.4792
30.0653
30.6147
31.1249
31.5941
32.0203
32.4021
32.738
33.0271
33.2687
33.4623
33.608
33.7055
33.7528
33.7579
33.7176
33.63
33.4972
33.3209
33.1029
32.8452
32.5499
32.2191
31.8554
31.4613
31.0395
30.593
30.1246
29.6376
29.1352
28.6207
28.0983
27.572
27.0477
26.5294
26.0285
25.5451
25.0233
0.244758
0.523372
0.654316
0.750819
0.837004
0.922973
1.01398
1.11294
1.22151
1.34077
1.47171
1.61542
1.77301
1.94545
2.13351
2.33773
2.55841
2.79574
3.04986
3.32091
3.60903
3.9144
4.23726
4.57786
4.93656
5.31375
5.70993
6.12567
6.5616
7.01839
7.49676
7.99743
8.52108
9.06835
9.6398
10.2359
10.8569
11.5031
12.1745
12.8708
13.5916
14.3361
15.1033
15.8919
16.7002
17.5264
18.3683
19.2234
20.0891
20.9626
21.8408
22.7204
23.5983
24.471
25.3349
26.1867
27.0226
27.8393
28.6333
29.4015
30.1406
30.8474
31.519
32.1526
32.7456
33.2954
33.8001
34.2576
34.6663
35.0248
35.332
35.587
35.7897
35.9398
36.0374
36.0821
36.0804
36.0294
35.9268
35.7756
35.5777
35.3351
35.0499
34.7245
34.3612
33.9627
33.5317
33.0711
32.5841
32.0739
31.5437
30.9969
30.4372
29.8688
29.2961
28.7251
28.1607
27.615
27.0881
26.5312
0.261819
0.553863
0.694063
0.797058
0.887656
0.976434
1.06903
1.16879
1.27781
1.39754
1.52914
1.67368
1.83217
2.00544
2.19416
2.39885
2.61989
2.85763
3.11244
3.38464
3.67464
3.98286
4.30977
4.65585
5.02165
5.40776
5.81487
6.24373
6.69515
7.16997
7.66908
8.19335
8.74358
9.32052
9.9248
10.557
11.2174
11.9063
12.6238
13.3694
14.1427
14.9428
15.7684
16.6181
17.4899
18.3817
19.2909
20.2148
21.1504
22.0944
23.0433
23.9938
24.9419
25.8841
26.8163
27.7347
28.6354
29.5147
30.3688
31.1943
31.9877
32.7455
33.4647
34.1422
34.7753
35.3613
35.8981
36.3836
36.8161
37.1941
37.5165
37.7826
37.9919
38.1441
38.2399
38.2803
38.2704
38.2077
38.0891
37.9188
37.6991
37.4319
37.1195
36.7645
36.3694
35.9371
35.4704
34.9726
34.4468
33.8964
33.3248
32.7355
32.1325
31.52
30.9025
30.2866
29.6772
29.0876
28.5171
27.9242
0.274661
0.575963
0.722817
0.830491
0.924449
1.01542
1.10918
1.20934
1.31826
1.43765
1.56884
1.71289
1.87066
2.04289
2.23023
2.43326
2.65253
2.88858
3.14198
3.41328
3.70315
4.0123
4.34147
4.69135
5.06273
5.45641
5.87323
6.31417
6.7803
7.27267
7.79234
8.34035
8.9176
9.5249
10.163
10.8324
11.5335
12.2666
13.0315
13.8279
14.655
15.5118
16.3968
17.3082
18.2438
19.2009
20.1769
21.1684
22.1722
23.1846
24.2018
25.22
26.2349
27.2426
28.2388
29.2193
30.18
31.1169
32.0259
32.9034
33.7457
34.5492
35.3106
36.0267
36.6947
37.3119
37.876
38.3849
38.8368
39.2303
39.5642
39.8378
40.0506
40.2025
40.2942
40.3276
40.3086
40.2331
40.0974
39.9078
39.6661
39.3745
39.0357
38.6521
38.2266
37.7621
37.2617
36.7288
36.1665
35.5784
34.968
34.339
33.6952
33.0412
32.3815
31.723
31.0706
30.4386
29.8251
29.1968
0.283921
0.589364
0.740482
0.851394
0.947813
1.04039
1.13492
1.2351
1.34351
1.46197
1.59185
1.73417
1.8898
2.05942
2.2437
2.44342
2.65931
2.89213
3.14273
3.41207
3.70082
4.00986
4.34022
4.69313
5.06982
5.4711
5.89774
6.35107
6.83258
7.34359
7.88533
8.45894
9.06538
9.70548
10.3799
11.0892
11.8337
12.6136
13.4284
14.2778
15.1606
16.0756
17.0207
17.994
18.9928
20.0141
21.0547
22.1111
23.1796
24.2561
25.3366
26.4169
27.4925
28.5592
29.6123
30.6477
31.6608
32.6475
33.6036
34.5252
35.4086
36.25
37.0459
37.7932
38.489
39.1305
39.7154
40.2415
40.7072
41.1109
41.4517
41.7286
41.9413
42.0896
42.1745
42.1983
42.1693
42.0793
41.9261
41.7169
41.4536
41.1385
40.7743
40.3638
39.9099
39.4156
38.8843
38.3192
37.7237
37.1013
36.4557
35.7904
35.1095
34.4175
33.719
33.021
32.3285
31.6565
31.0015
30.3396
0.289399
0.594349
0.747684
0.860549
0.95857
1.05221
1.14714
1.24704
1.35446
1.47129
1.59895
1.73855
1.8911
2.05768
2.23886
2.43527
2.64776
2.87729
3.12488
3.39153
3.67858
3.98747
4.31955
4.67614
5.05852
5.468
5.9059
6.37396
6.87382
7.40693
7.97473
8.57835
9.21872
9.89647
10.6121
11.3661
12.1585
12.9893
13.8577
14.7629
15.7035
16.6777
17.6831
18.7172
19.777
20.8591
21.9599
23.0757
24.2022
25.3354
26.4708
27.6041
28.7307
29.8461
30.9457
32.025
33.0795
34.1049
35.097
36.0518
36.9655
37.8343
38.6546
39.4234
40.1376
40.7946
41.392
41.9278
42.4002
42.8078
43.1497
43.4249
43.6332
43.7744
43.8493
43.8612
43.8212
43.715
43.5441
43.3156
43.0315
42.6943
42.3067
41.8717
41.3922
40.8715
40.3128
39.7195
39.095
38.4428
37.7664
37.0696
36.3562
35.6307
34.8979
34.1646
33.4357
32.7271
32.0332
31.3406
0.291488
0.592558
0.746094
0.859493
0.958085
1.05206
1.14695
1.24633
1.35276
1.46809
1.59374
1.73083
1.88031
2.04291
2.2193
2.41075
2.61845
2.84374
3.08804
3.35301
3.64035
3.95165
4.28851
4.65265
5.04592
5.46949
5.92437
6.41339
6.93827
7.50071
8.10247
8.74439
9.42714
10.1509
10.9157
11.7217
12.5686
13.4557
14.382
15.3459
16.3455
17.3785
18.4421
19.5332
20.6484
21.7841
22.9365
24.1014
25.2747
26.4521
27.6292
28.8015
29.9646
31.1138
32.2446
33.3526
34.4333
35.4824
36.4957
37.4693
38.3993
39.282
40.1139
40.8919
41.613
42.2748
42.8748
43.411
43.8818
44.2859
44.6224
44.8903
45.0896
45.2198
45.2812
45.28
45.2274
45.1037
44.9154
44.6685
44.3653
44.0081
43.6
43.1438
42.6427
42.0999
41.5186
40.9022
40.2541
39.5777
38.8764
38.1538
37.4137
36.6604
35.8987
35.1355
34.375
33.6343
32.905
32.1858
0.290977
0.586158
0.73881
0.851971
0.950527
1.04429
1.13851
1.23666
1.34119
1.45391
1.57614
1.70916
1.85403
2.01183
2.18398
2.37177
2.57676
2.80069
3.04536
3.31287
3.60566
3.92579
4.27507
4.65501
5.06644
5.51314
5.99826
6.52319
7.08947
7.69833
8.35036
9.04632
9.78702
10.5714
11.3987
12.2684
13.1793
14.13
15.1188
16.1434
17.2013
18.2896
19.4051
20.5445
21.7041
22.8803
24.069
25.2665
26.4685
27.6711
28.8699
30.0607
31.2393
32.4014
33.5424
34.6583
35.7448
36.7976
37.8127
38.7864
39.7148
40.5943
41.4215
42.1934
42.9072
43.5606
44.1508
44.6764
45.1356
45.5272
45.8503
46.1043
46.289
46.4035
46.4472
46.4324
46.3638
46.2215
46.0163
45.7521
45.4313
45.0567
44.6311
44.1576
43.6391
43.0789
42.4803
41.8464
41.1806
40.4861
39.7661
39.0241
38.2636
37.4888
36.7042
35.9168
35.1301
34.3621
33.6014
32.8605
0.288691
0.5742
0.724312
0.836064
0.933599
1.02623
1.11893
1.21501
1.31693
1.42667
1.54594
1.67607
1.81836
1.97422
2.1454
2.33372
2.54146
2.77135
3.02553
3.30639
3.61534
3.95532
4.33005
4.74252
5.19627
5.6933
6.23584
6.82473
7.46082
8.14392
8.87355
9.64874
10.4679
11.3286
12.2299
13.1702
14.1476
15.1598
16.2044
17.2786
18.3797
19.5047
20.6503
21.8134
22.9906
24.1786
25.3739
26.5729
27.7723
28.9684
30.1574
31.3356
32.4993
33.6443
34.7667
35.8627
36.9283
37.9595
38.9525
39.9037
40.8093
41.6658
42.47
43.2191
43.9103
44.5414
45.1098
45.614
46.0522
46.4235
46.7269
46.962
47.1288
47.2247
47.2489
47.2214
47.1359
46.9777
46.7585
46.4811
46.148
45.762
45.3258
44.8424
44.3148
43.746
43.1392
42.4975
41.8236
41.1205
40.3915
39.6396
38.8683
38.0814
37.2831
36.4802
35.6754
34.888
34.1026
33.3471
0.284581
0.560301
0.706787
0.816153
0.911814
1.00266
1.0935
1.18773
1.2879
1.39608
1.5142
1.64407
1.78742
1.94658
2.12424
2.32269
2.54437
2.79104
3.06793
3.37891
3.72879
4.1216
4.5601
5.04676
5.58452
6.17423
6.81524
7.50598
8.24579
9.03129
9.86046
10.7289
11.6311
12.5666
13.5338
14.5304
15.5543
16.6031
17.6745
18.7661
19.8755
21.0002
22.1377
23.2855
24.4411
25.6017
26.7648
27.9278
29.0878
30.242
31.3871
32.5202
33.6379
34.7366
35.8126
36.8626
37.883
38.8695
39.819
40.7281
41.5927
42.4097
43.1757
43.8868
44.541
45.1371
45.6722
46.1452
46.5542
46.8984
47.1769
47.3895
47.5359
47.6129
47.6208
47.5836
47.4847
47.3159
47.0883
46.804
46.4656
46.0756
45.6368
45.1521
44.6242
44.0562
43.4509
42.8112
42.1403
41.4404
40.7142
39.9644
39.1939
38.4062
37.6052
36.7973
35.9843
35.1867
34.3847
33.6232
0.279614
0.545321
0.687516
0.794183
0.887896
0.977044
1.0663
1.15933
1.25905
1.36805
1.48884
1.62477
1.77823
1.95169
2.14759
2.37218
2.63185
2.93345
3.28172
3.68079
4.13682
4.65356
5.22985
5.86265
6.55126
7.29245
8.07933
8.90586
9.77123
10.6666
11.5847
12.523
13.4807
14.4566
15.4494
16.4577
17.4803
18.5159
19.5632
20.621
21.6879
22.7624
23.8431
24.9285
26.0172
27.1074
28.1972
29.2851
30.3691
31.447
32.5157
33.5733
34.6167
35.6424
36.6472
37.6283
38.5819
39.5039
40.3896
41.2367
42.0417
42.8018
43.515
44.1794
44.7901
45.346
45.8437
46.2824
46.66
46.9761
47.2294
47.4199
47.5471
47.6053
47.5999
47.5528
47.442
47.2664
47.0343
46.748
46.4097
46.0221
45.5876
45.109
44.5889
44.0301
43.4352
42.8068
42.1474
41.459
40.7441
40.0048
39.2438
38.4642
37.6692
36.865
36.0524
35.2529
34.4422
33.6814
0.274119
0.529457
0.666699
0.770809
0.862973
0.951011
1.03976
1.13368
1.23694
1.35438
1.4895
1.64324
1.8252
2.04513
2.31208
2.63474
3.02603
3.49495
4.04155
4.65934
5.35002
6.10952
6.92221
7.77274
8.65759
9.5689
10.4937
11.425
12.354
13.2853
14.2191
15.1552
16.0931
17.0334
17.9767
18.9234
19.8741
20.8291
21.7885
22.7521
23.7196
24.6906
25.6648
26.6416
27.6203
28.6001
29.5797
30.5585
31.5351
32.5075
33.4728
34.4301
35.3763
36.3078
37.2204
38.1111
38.9776
39.8174
40.6284
41.4052
42.144
42.8418
43.496
44.1037
44.6616
45.1689
45.6219
46.02
46.3611
46.6447
46.8694
47.0354
47.142
47.1807
47.1656
47.1087
46.9886
46.8097
46.5774
46.2938
45.9612
45.5818
45.1582
44.6927
44.1879
43.646
43.0697
42.4611
41.8221
41.1547
40.4606
39.7416
38.9997
38.2376
37.4581
36.6665
35.8628
35.0692
34.2569
33.5029
0.268945
0.51226
0.643159
0.745737
0.837646
0.926725
1.01946
1.12332
1.2435
1.38846
1.57305
1.81301
2.13111
2.5553
3.09346
3.74376
4.51326
5.38687
6.33154
7.30961
8.31951
9.34887
10.3685
11.365
12.3305
13.2603
14.1655
15.052
15.9202
16.7722
17.6109
18.4391
19.2594
20.0744
20.8861
21.6966
22.5076
23.3203
24.1356
24.9539
25.7755
26.6007
27.4299
28.2631
29.1003
29.941
30.7842
31.6303
32.4779
33.3252
34.1689
35.0066
35.8366
36.6568
37.4668
38.2607
39.0352
39.7866
40.5119
41.2075
41.8696
42.4954
43.0823
43.6277
44.1275
44.5818
44.9865
45.341
45.6432
45.8927
46.0878
46.2291
46.3155
46.3358
46.3133
46.2478
46.1215
45.9427
45.7139
45.4373
45.1152
44.7494
44.3425
43.8964
43.4134
42.8956
42.3453
41.7641
41.1537
40.5153
39.8505
39.1602
38.4461
37.71
36.9544
36.1837
35.3971
34.6166
33.8104
33.0677
0.263006
0.49035
0.612502
0.718092
0.814651
0.918015
1.03435
1.18091
1.38741
1.71504
2.2078
2.88186
3.76322
4.86119
6.08045
7.35315
8.66412
9.96367
11.2019
12.3571
13.4238
14.4058
15.3248
16.1924
17.0172
17.7939
18.5333
19.2423
19.9269
20.5919
21.242
21.8815
22.5141
23.1428
23.7702
24.3985
25.0296
25.6648
26.3052
26.9508
27.6022
28.2605
28.9261
29.5994
30.2806
30.9691
31.6643
32.3652
33.0714
33.7812
34.4966
35.2126
35.9264
36.6349
37.3351
38.024
38.6984
39.3545
39.9894
40.5996
41.1811
41.7315
42.248
42.7281
43.1681
43.5674
43.9225
44.2326
44.4953
44.7105
44.8759
44.9931
45.0596
45.0643
45.0358
44.9629
44.8342
44.6582
44.4366
44.1713
43.8642
43.5172
43.1323
42.7114
42.2564
41.7691
41.2515
40.7048
40.1302
39.5286
38.9007
38.247
37.5686
36.8667
36.1432
35.4011
34.6394
33.8789
33.0866
32.3586
0.259467
0.457229
0.560279
0.700756
0.829562
1.01334
1.32976
1.8848
2.73216
4.06185
5.72826
7.49881
9.32728
11.163
12.8145
14.2848
15.539
16.6135
17.5682
18.4361
19.2254
19.9387
20.5866
21.179
21.7303
22.2402
22.7222
23.1814
23.6251
24.0578
24.4838
24.9073
25.3313
25.7581
26.1897
26.6279
27.0739
27.5284
27.9921
28.4644
28.9462
29.4379
29.9402
30.4538
30.9789
31.5166
32.0684
32.6318
33.2056
33.788
34.3771
34.971
35.567
36.1623
36.7538
37.3385
37.9133
38.4746
39.0194
39.5445
40.0459
40.5211
40.9675
41.3825
41.7626
42.107
42.4128
42.6788
42.9028
43.0848
43.2217
43.3166
43.3643
43.3583
43.3239
43.2458
43.1184
42.9487
42.738
42.488
42.2003
41.8767
41.5189
41.1286
40.7072
40.2565
39.7778
39.2721
38.7401
38.182
37.5983
36.9886
36.3536
35.6934
35.0096
34.3035
33.5747
32.8404
32.0705
31.3589
0.242614
0.32138
0.282376
0.898783
1.34162
2.56576
4.49582
6.97907
9.58112
12.4681
15.0155
17.0233
18.6052
19.8373
20.8177
21.6694
22.378
22.9697
23.4777
23.921
24.3137
24.6596
24.9663
25.2382
25.4884
25.7193
25.9398
26.1535
26.3671
26.5826
26.8034
27.0317
27.2691
27.5165
27.775
28.0454
28.328
28.6227
28.929
29.2489
29.5825
29.9299
30.2918
30.6687
31.0611
31.4688
31.8918
32.3296
32.781
33.2445
33.7182
34.1999
34.6872
35.1773
35.6673
36.1542
36.6347
37.1057
37.5643
38.0077
38.432
38.8349
39.2137
39.5661
39.8889
40.1809
40.4397
40.664
40.8514
41.0026
41.1131
41.1884
41.2195
41.2073
41.1683
41.0879
40.9656
40.8057
40.6097
40.379
40.1152
39.8194
39.4936
39.1388
38.7563
38.3476
37.9137
37.455
36.9716
36.4637
35.9309
35.372
34.7875
34.1762
33.5398
32.8767
32.1885
31.4861
30.7482
30.0529
0.272449
0.71341
1.37165
4.68638
7.31988
12.6415
17.1707
20.5978
22.9455
24.5189
25.4381
26.0054
26.4208
26.714
26.9083
27.0552
27.1756
27.2644
27.3351
27.3939
27.4418
27.4754
27.4991
27.5139
27.5301
27.5481
27.5746
27.6094
27.659
27.7207
27.7976
27.89
27.9976
28.1201
28.2577
28.4102
28.5771
28.757
28.95
29.1557
29.3755
29.6103
29.8612
30.1286
30.4131
30.7147
31.033
31.3674
31.7167
32.0797
32.4545
32.839
33.2311
33.628
34.0272
34.4259
34.8213
35.2102
35.59
35.9583
36.3116
36.6476
36.9639
37.2584
37.5281
37.7719
37.9873
38.1736
38.3278
38.4517
38.539
38.5984
38.6165
38.6011
38.5605
38.4818
38.368
38.2218
38.0443
37.8371
37.6013
37.3379
37.0486
36.734
36.3954
36.0338
35.6498
35.2435
34.8146
34.3629
33.8873
33.3857
32.8585
32.3031
31.7213
31.1079
30.4684
29.8032
29.1077
28.4271
0.553567
8.02258
12.9561
23.397
26.7805
31.2373
31.6764
31.3953
30.9084
30.2943
29.7611
29.2926
28.9377
28.6639
28.4503
28.2786
28.1492
28.0344
27.9374
27.8474
27.7545
27.6546
27.5565
27.461
27.3781
27.3082
27.2581
27.2241
27.2135
27.2164
27.2391
27.2784
27.3323
27.4003
27.482
27.5764
27.6821
27.7975
27.9234
28.06
28.2092
28.3722
28.5503
28.7442
28.9545
29.1812
29.4239
29.6819
29.9542
30.2395
30.5362
30.8426
31.1565
31.4759
31.7984
32.1217
32.4434
32.7608
33.0714
33.3732
33.6634
33.94
34.2004
34.4431
34.6656
34.8665
35.0437
35.1967
35.3221
35.4231
35.491
35.5391
35.5488
35.533
35.4945
35.4223
35.3207
35.1919
35.0371
34.8574
34.6538
34.4269
34.1785
33.9086
33.6183
33.3085
32.9793
32.6305
32.2612
31.8712
31.4588
31.0206
30.5574
30.0645
29.5447
28.9875
28.4048
27.7818
27.1404
26.4711
1.08428
3.36705
4.91688
7.61355
9.51982
11.6765
13.7424
15.5027
17.161
18.5391
19.765
20.7742
21.6184
22.2603
22.773
23.1607
23.4664
23.6842
23.8661
23.983
24.038
24.0575
24.0693
24.0808
24.1059
24.142
24.1946
24.2582
24.333
24.4157
24.5047
24.5989
24.6946
24.7934
24.8956
24.999
25.1023
25.205
25.31
25.419
25.5354
25.6605
25.7964
25.9438
26.1034
26.2751
26.4586
26.6534
26.8585
27.0729
27.2954
27.5247
27.7592
27.9976
28.2381
28.4791
28.7187
28.9553
29.1866
29.4113
29.6272
29.8329
30.0262
30.2061
30.3704
30.5183
30.6475
30.7585
30.8471
30.9187
30.9609
30.9955
30.9936
30.9751
30.9385
30.8751
30.7876
30.6808
30.5548
30.4103
30.2482
30.0684
29.8733
29.6617
29.4349
29.1934
28.9367
28.6647
28.3754
28.0695
27.7436
27.3924
27.0183
26.6129
26.1806
25.7029
25.2029
24.639
24.0824
23.4187
0.669378
0.706729
0.794201
0.85309
1.00452
1.11051
1.33844
1.5487
1.86043
2.23745
2.72188
3.2814
3.92275
4.62964
5.39201
6.20648
7.05145
7.92472
8.79775
9.67495
10.5681
11.4434
12.2947
13.0954
13.8504
14.5391
15.1735
15.7425
16.2569
16.7235
17.1414
17.5179
17.857
18.1732
18.4593
18.709
18.9271
19.1243
19.3108
19.4901
19.6679
19.8443
20.0221
20.2004
20.3803
20.5613
20.7425
20.9246
21.107
21.289
21.4704
21.6508
21.8299
22.0072
22.1823
22.3545
22.523
22.6871
22.8458
22.9984
23.1437
23.2811
23.4093
23.528
23.6357
23.7323
23.816
23.888
23.944
23.9912
24.0149
24.0419
24.0409
24.0279
24.0032
23.9606
23.9041
23.8367
23.7581
23.6684
23.5686
23.4582
23.3405
23.2123
23.0765
22.9323
22.7775
22.6161
22.4401
22.2567
22.0561
21.8311
21.5883
21.3114
21.0077
20.6481
20.273
19.801
19.3773
18.7154
0.439036
0.440976
0.445615
0.446418
0.449606
0.45057
0.452577
0.454903
0.459146
0.465711
0.476754
0.492969
0.50714
0.558506
0.589661
0.68002
0.738631
0.853727
0.959731
1.10289
1.2898
1.51004
1.77994
2.08682
2.43994
2.82736
3.25418
3.70808
4.18955
4.68792
5.20301
5.71837
6.23795
6.74577
7.25132
7.75503
8.2588
8.7493
9.22643
9.67978
10.1135
10.5192
10.9041
11.261
11.5984
11.9106
12.2048
12.4796
12.7366
12.9772
13.2033
13.4158
13.6155
13.8034
13.9804
14.147
14.3032
14.4495
14.5875
14.716
14.8368
14.9484
15.0525
15.1485
15.2372
15.3182
15.3919
15.4581
15.5161
15.5692
15.6108
15.6469
15.6735
15.6887
15.702
15.7009
15.7099
15.7074
15.6986
15.6836
15.6653
15.6437
15.6233
15.5979
15.5769
15.5509
15.5183
15.4982
15.4587
15.4362
15.3885
15.3176
15.2376
15.1141
14.959
14.7479
14.5177
14.1834
13.8719
13.2826
0.389307
0.389392
0.389507
0.389383
0.389132
0.388686
0.38813
0.387451
0.386694
0.385906
0.385118
0.384439
0.383756
0.383347
0.383401
0.383977
0.384973
0.386455
0.388664
0.391511
0.395896
0.40039
0.4109
0.418556
0.446486
0.459578
0.49985
0.522577
0.575756
0.614324
0.679008
0.740954
0.82364
0.918316
1.0303
1.15594
1.3007
1.45962
1.63591
1.82366
2.0254
2.23417
2.45198
2.67173
2.89468
3.11515
3.33284
3.54528
3.75023
3.9467
4.13355
4.31063
4.47708
4.63418
4.78047
4.9171
5.04447
5.16359
5.27352
5.37545
5.46851
5.55647
5.63878
5.71734
5.79143
5.86233
5.92944
5.99365
6.05529
6.11453
6.17374
6.23568
6.30472
6.37165
6.45033
6.52688
6.61578
6.70823
6.80631
6.90746
7.01409
7.11883
7.23684
7.35107
7.48325
7.61124
7.74945
7.88066
8.01626
8.14813
8.26399
8.3531
8.44801
8.44858
8.43002
8.40273
8.31509
8.17523
7.9575
7.53448
0.373354
0.373087
0.372799
0.372486
0.372145
0.371763
0.371345
0.370879
0.370374
0.369817
0.369231
0.368598
0.367951
0.367266
0.366575
0.365893
0.365218
0.364568
0.363933
0.363339
0.362777
0.362273
0.361853
0.361425
0.361651
0.361815
0.362399
0.362861
0.364306
0.365189
0.368286
0.369501
0.374018
0.375882
0.382852
0.38581
0.396366
0.40089
0.416204
0.422923
0.443144
0.452719
0.478082
0.491153
0.521426
0.53846
0.573026
0.594213
0.632237
0.656637
0.69636
0.723509
0.76351
0.794333
0.835419
0.870227
0.915371
0.945647
0.997484
1.01708
1.0629
1.07801
1.12034
1.13493
1.17461
1.18911
1.22687
1.24103
1.27794
1.29177
1.32931
1.34351
1.38581
1.40177
1.45209
1.47196
1.53174
1.55731
1.61973
1.65403
1.71557
1.763
1.83099
1.90401
1.99215
2.07927
2.17901
2.27869
2.38402
2.49519
2.59774
2.69836
2.78775
2.8652
2.91412
2.91333
2.91993
2.89062
2.80399
2.60172
0.367331
0.366977
0.366611
0.366232
0.365844
0.365443
0.36503
0.364601
0.364159
0.363698
0.363224
0.362731
0.362223
0.3617
0.36116
0.360608
0.360042
0.359467
0.358881
0.358288
0.357687
0.35708
0.356471
0.355853
0.355247
0.354652
0.354071
0.353507
0.352957
0.352432
0.351956
0.351493
0.351086
0.350691
0.350379
0.350087
0.349922
0.349749
0.3499
0.349972
0.350251
0.350541
0.351056
0.351515
0.352361
0.352833
0.354601
0.355237
0.357275
0.35801
0.360274
0.36109
0.363535
0.364529
0.367319
0.368611
0.371763
0.373312
0.376426
0.378367
0.380233
0.382231
0.384177
0.38626
0.388297
0.390482
0.392622
0.39493
0.397202
0.399679
0.402139
0.404895
0.407708
0.410979
0.414405
0.418523
0.422892
0.428064
0.43321
0.439685
0.446423
0.451005
0.465978
0.472463
0.489538
0.49955
0.519059
0.533655
0.554472
0.57707
0.600755
0.627009
0.650617
0.675175
0.695681
0.709809
0.720096
0.7121
0.720701
0.64596
0.365435
0.365025
0.364608
0.364183
0.363752
0.363314
0.362871
0.362419
0.361961
0.361495
0.361021
0.36054
0.360051
0.359553
0.359047
0.358533
0.358011
0.35748
0.356942
0.356395
0.355841
0.355278
0.354709
0.354131
0.353547
0.352957
0.352362
0.351761
0.351156
0.350546
0.349936
0.34932
0.348705
0.348086
0.34747
0.346851
0.346238
0.345623
0.345019
0.34442
0.34383
0.343248
0.342677
0.342115
0.341566
0.341022
0.340507
0.340004
0.339525
0.339057
0.338608
0.338171
0.337749
0.337348
0.336965
0.33661
0.336267
0.335959
0.33566
0.335379
0.335082
0.33483
0.334573
0.334376
0.334177
0.334043
0.333905
0.333831
0.333755
0.333736
0.333729
0.333763
0.333818
0.333918
0.334042
0.33422
0.334426
0.33469
0.334975
0.33532
0.335673
0.336081
0.336594
0.337214
0.337751
0.338921
0.339619
0.341232
0.342025
0.343975
0.345045
0.347281
0.348429
0.350478
0.351481
0.352175
0.353129
0.350987
0.350076
0.342144
0.364986
0.364551
0.364109
0.363662
0.36321
0.362751
0.362288
0.361818
0.361344
0.360862
0.360376
0.359883
0.359385
0.35888
0.35837
0.357853
0.357332
0.356803
0.35627
0.355729
0.355184
0.354631
0.354073
0.353507