/*--------------------------------*- C++ -*----------------------------------*\
| =========                 |                                                 |
| \\      /  F ield         | OpenFOAM: The Open Source CFD Toolbox           |
|  \\    /   O peration     | Version:  5.x                                   |
|   \\  /    A nd           | Web:      www.OpenFOAM.org                      |
|    \\/     M anipulation  |                                                 |
\*---------------------------------------------------------------------------*/
FoamFile
{
    version     2.0;
    format      ascii;
    class       volVectorField;
    location    "284";
    object      U;
}
// * * * * * * * * * * * * * * * * * * * * * * * * * * * * * * * * * * * * * //

dimensions      [0 1 -1 0 0 0 0];

internalField   nonuniform List<vector> 
5760
(
(19.9369 -0.741629 0)
(19.8578 -0.732674 0)
(19.7432 -0.523991 0)
(19.5957 -0.352544 0)
(19.4421 -0.234595 0)
(19.2976 -0.156436 0)
(19.1648 -0.104728 0)
(19.0435 -0.0699879 0)
(18.9342 -0.0460013 0)
(18.8353 -0.029352 0)
(18.7469 -0.0174367 0)
(18.6664 -0.00903773 0)
(18.5947 -0.00272212 0)
(18.5287 0.00172615 0)
(18.4693 0.00528674 0)
(18.4166 0.00690107 0)
(18.3574 0.0142695 0)
(18.3339 -0.00206421 0)
(20.0273 0.200482 0)
(20.0927 0.352024 0)
(20.1243 0.335893 0)
(20.1322 0.277884 0)
(20.1369 0.224608 0)
(20.1402 0.182019 0)
(20.1388 0.14894 0)
(20.1316 0.123821 0)
(20.1193 0.104677 0)
(20.1037 0.0900454 0)
(20.0849 0.0784721 0)
(20.0647 0.0693861 0)
(20.0422 0.0618839 0)
(20.02 0.0559427 0)
(19.9962 0.050726 0)
(19.9737 0.0475675 0)
(19.9508 0.0425639 0)
(19.9358 0.0488788 0)
(19.9949 0.0307192 0)
(19.9971 0.0113894 0)
(20.0121 -0.0227672 0)
(20.0302 -0.0315445 0)
(20.0478 -0.0230436 0)
(20.0636 -0.0110721 0)
(20.0765 -0.000545074 0)
(20.0861 0.00810569 0)
(20.0929 0.0151195 0)
(20.0977 0.0205965 0)
(20.1006 0.0248215 0)
(20.1022 0.0280149 0)
(20.1024 0.0304617 0)
(20.1017 0.0323128 0)
(20.1001 0.0336885 0)
(20.0982 0.0348147 0)
(20.0959 0.0354457 0)
(20.0945 0.0362807 0)
(19.9953 -0.00157933 0)
(19.992 0.00550485 0)
(20.0039 0.0190961 0)
(20.0179 0.0344584 0)
(20.0285 0.0458295 0)
(20.0373 0.0513509 0)
(20.0456 0.0528928 0)
(20.0531 0.052706 0)
(20.0597 0.0518624 0)
(20.0657 0.0507689 0)
(20.0711 0.0495476 0)
(20.0759 0.048349 0)
(20.0802 0.0471629 0)
(20.0841 0.046054 0)
(20.0875 0.0449423 0)
(20.0907 0.043909 0)
(20.0936 0.0425551 0)
(20.0966 0.0410008 0)
(19.9985 0.000223323 0)
(19.9987 0.0160986 0)
(20.0067 0.0286587 0)
(20.0153 0.0334671 0)
(20.0214 0.0347675 0)
(20.0273 0.0350059 0)
(20.0336 0.0349653 0)
(20.0398 0.035007 0)
(20.0456 0.0352086 0)
(20.051 0.0354734 0)
(20.0561 0.0357079 0)
(20.0608 0.0358795 0)
(20.0653 0.0359695 0)
(20.0696 0.0359732 0)
(20.0736 0.0358517 0)
(20.0774 0.0355975 0)
(20.0811 0.035046 0)
(20.0847 0.0342408 0)
(19.9997 0.00309552 0)
(20.001 0.0152036 0)
(20.0065 0.0231293 0)
(20.0132 0.0261799 0)
(20.019 0.0284564 0)
(20.0245 0.0309404 0)
(20.0301 0.0329805 0)
(20.0355 0.0343715 0)
(20.0404 0.0352851 0)
(20.045 0.035863 0)
(20.0493 0.0361713 0)
(20.0535 0.036269 0)
(20.0574 0.036198 0)
(20.0613 0.0359884 0)
(20.0649 0.0356349 0)
(20.0685 0.0351323 0)
(20.0719 0.0344128 0)
(20.0751 0.0334916 0)
(20 0.00351926 0)
(20.0014 0.0121407 0)
(20.0057 0.0189066 0)
(20.0115 0.0231037 0)
(20.0172 0.0263016 0)
(20.0224 0.0289055 0)
(20.0274 0.0306396 0)
(20.0322 0.0316024 0)
(20.0367 0.0321177 0)
(20.0409 0.0323918 0)
(20.0449 0.0324967 0)
(20.0488 0.032465 0)
(20.0525 0.0323184 0)
(20.056 0.0320678 0)
(20.0594 0.0317066 0)
(20.0627 0.0312251 0)
(20.0658 0.0305924 0)
(20.0687 0.0298302 0)
(20.0001 0.00325333 0)
(20.0015 0.0101731 0)
(20.005 0.0162787 0)
(20.01 0.020566 0)
(20.0151 0.0235035 0)
(20.0198 0.0256478 0)
(20.0244 0.0271522 0)
(20.029 0.0281406 0)
(20.0333 0.0287909 0)
(20.0374 0.02922 0)
(20.0413 0.0294705 0)
(20.045 0.0295625 0)
(20.0486 0.0295147 0)
(20.0519 0.0293415 0)
(20.0552 0.0290495 0)
(20.0582 0.0286415 0)
(20.0611 0.0281129 0)
(20.0638 0.0275029 0)
(20.0001 0.00287881 0)
(20.0015 0.00866967 0)
(20.0045 0.0138564 0)
(20.0087 0.0177075 0)
(20.0132 0.020392 0)
(20.0176 0.0223898 0)
(20.0219 0.0238986 0)
(20.0261 0.0249695 0)
(20.0303 0.0256836 0)
(20.0342 0.0261321 0)
(20.0379 0.026375 0)
(20.0415 0.0264481 0)
(20.0449 0.0263773 0)
(20.0482 0.0261834 0)
(20.0513 0.0258802 0)
(20.0542 0.0254796 0)
(20.0569 0.0249907 0)
(20.0595 0.0244555 0)
(20.0001 0.00241223 0)
(20.0014 0.00711083 0)
(20.0039 0.0113001 0)
(20.0074 0.0145937 0)
(20.0113 0.0170288 0)
(20.0153 0.0188689 0)
(20.0193 0.0202631 0)
(20.0232 0.0212667 0)
(20.0271 0.021948 0)
(20.0308 0.0223895 0)
(20.0343 0.0226543 0)
(20.0378 0.0227803 0)
(20.041 0.0227917 0)
(20.0441 0.0227066 0)
(20.0471 0.0225376 0)
(20.0499 0.0222968 0)
(20.0525 0.0219875 0)
(20.055 0.0216611 0)
(20.0001 0.00180982 0)
(20.0012 0.00527496 0)
(20.0032 0.00836538 0)
(20.0061 0.0109055 0)
(20.0094 0.0128791 0)
(20.0129 0.0143945 0)
(20.0164 0.0155446 0)
(20.02 0.016379 0)
(20.0236 0.0169388 0)
(20.0271 0.01727 0)
(20.0305 0.017414 0)
(20.0338 0.0174036 0)
(20.0369 0.0172667 0)
(20.0399 0.0170285 0)
(20.0428 0.0167128 0)
(20.0455 0.0163422 0)
(20.048 0.0159361 0)
(20.0504 0.0155197 0)
(20.0001 0.00109455 0)
(20.0009 0.0031731 0)
(20.0026 0.00503048 0)
(20.0049 0.00659059 0)
(20.0077 0.00784241 0)
(20.0107 0.00884261 0)
(20.0139 0.00966209 0)
(20.017 0.0103555 0)
(20.0201 0.0109565 0)
(20.0232 0.0114836 0)
(20.0261 0.011945 0)
(20.029 0.0123433 0)
(20.0317 0.0126784 0)
(20.0344 0.0129506 0)
(20.037 0.0131605 0)
(20.0395 0.0133133 0)
(20.0419 0.0134035 0)
(20.0442 0.013495 0)
(20.0001 0.000266594 0)
(20.0008 0.000743006 0)
(20.0022 0.0011289 0)
(20.0042 0.00144869 0)
(20.0067 0.00171253 0)
(20.0096 0.00186041 0)
(20.0127 0.00181185 0)
(20.0161 0.00153645 0)
(20.0195 0.00105878 0)
(20.023 0.000428763 0)
(20.0263 -0.000302188 0)
(20.0295 -0.00108962 0)
(20.0326 -0.00189729 0)
(20.0354 -0.00269623 0)
(20.0381 -0.00346406 0)
(20.0406 -0.00418414 0)
(20.0428 -0.00484193 0)
(20.045 -0.0054375 0)
(20.0001 -0.000457282 0)
(20.0007 -0.00139185 0)
(20.002 -0.00251403 0)
(20.0042 -0.00368529 0)
(20.0066 -0.00457424 0)
(20.0089 -0.00495357 0)
(20.011 -0.0047932 0)
(20.013 -0.00420504 0)
(20.015 -0.00335436 0)
(20.0172 -0.00238954 0)
(20.0196 -0.00141412 0)
(20.022 -0.000491416 0)
(20.0246 0.000341846 0)
(20.0272 0.00106583 0)
(20.0298 0.0016713 0)
(20.0325 0.00215765 0)
(20.0352 0.0025146 0)
(20.038 0.00279255 0)
(20.0001 -0.000917982 0)
(20.0003 -0.00306333 0)
(20.0012 -0.00487825 0)
(20.0035 -0.00637138 0)
(20.0072 -0.0083502 0)
(20.0118 -0.0111331 0)
(20.0164 -0.0143056 0)
(20.0208 -0.017335 0)
(20.0247 -0.0199488 0)
(20.0281 -0.0220922 0)
(20.0311 -0.0237914 0)
(20.0339 -0.0250928 0)
(20.0364 -0.0260526 0)
(20.0387 -0.0267326 0)
(20.0408 -0.0271911 0)
(20.0427 -0.0274786 0)
(20.0444 -0.0276255 0)
(20.046 -0.0276891 0)
(19.9999 3.66416e-05 0)
(20.0003 -0.00586329 0)
(20.0021 -0.0114744 0)
(20.0037 -0.0119415 0)
(20.0044 -0.00859073 0)
(20.0052 -0.00432124 0)
(20.0072 -0.000684807 0)
(20.0103 0.00195308 0)
(20.014 0.00365009 0)
(20.0178 0.0045536 0)
(20.0216 0.00483172 0)
(20.0254 0.00464837 0)
(20.029 0.00414462 0)
(20.0324 0.00343292 0)
(20.0357 0.00259892 0)
(20.0389 0.00170913 0)
(20.042 0.000796034 0)
(20.045 -7.40433e-05 0)
(19.9969 0.00541036 0)
(19.9911 0.00116717 0)
(19.9971 -0.0147795 0)
(20.008 -0.0332916 0)
(20.0159 -0.0480973 0)
(20.0198 -0.0572937 0)
(20.0221 -0.061773 0)
(20.024 -0.0631659 0)
(20.0259 -0.0627387 0)
(20.0279 -0.0612578 0)
(20.0299 -0.0591965 0)
(20.0321 -0.0568731 0)
(20.0344 -0.0544966 0)
(20.0367 -0.0521885 0)
(20.0391 -0.0500111 0)
(20.0415 -0.0479821 0)
(20.0438 -0.0461024 0)
(20.0459 -0.0443528 0)
(19.9918 -0.00468744 0)
(19.9716 0.0216072 0)
(19.9652 0.0561547 0)
(19.9724 0.0738912 0)
(19.9855 0.0748368 0)
(19.9993 0.0679682 0)
(20.0118 0.0589886 0)
(20.0224 0.0497655 0)
(20.0315 0.0408969 0)
(20.0392 0.0327594 0)
(20.0458 0.0255616 0)
(20.0515 0.0193059 0)
(20.0564 0.0138972 0)
(20.0606 0.00922351 0)
(20.0644 0.0051768 0)
(20.0677 0.00171277 0)
(20.0707 -0.00125193 0)
(20.0732 -0.00327761 0)
(20.0111 -0.123897 0)
(20.0401 -0.250821 0)
(20.0541 -0.268673 0)
(20.0576 -0.24371 0)
(20.0633 -0.212493 0)
(20.0732 -0.183863 0)
(20.0832 -0.158788 0)
(20.0909 -0.137586 0)
(20.0959 -0.120196 0)
(20.0988 -0.106037 0)
(20.0999 -0.0944486 0)
(20.0995 -0.0849041 0)
(20.0978 -0.0770038 0)
(20.0951 -0.0704618 0)
(20.0918 -0.0650671 0)
(20.0881 -0.0607719 0)
(20.0852 -0.0575518 0)
(20.0815 -0.0560386 0)
(19.9831 0.460776 0)
(19.9943 0.482293 0)
(19.9751 0.367143 0)
(19.9171 0.266257 0)
(19.8434 0.192842 0)
(19.7696 0.141028 0)
(19.6997 0.104662 0)
(19.6343 0.0787891 0)
(19.5739 0.0599552 0)
(19.5187 0.0459274 0)
(19.4683 0.0353236 0)
(19.4222 0.0271821 0)
(19.3799 0.0208381 0)
(19.3409 0.0157966 0)
(19.3047 0.0116928 0)
(19.2707 0.00810709 0)
(19.2377 0.00473328 0)
(19.206 0.000289792 0)
(0.0274714 -0.0343992 0)
(0.072763 -0.0412875 1.85877e-18)
(0.109796 -0.0310003 0)
(0.134328 -0.0158599 -1.15757e-18)
(0.142589 -0.00120232 0)
(0.135456 0.00918027 0)
(0.118959 0.0129651 0)
(0.101082 0.0104677 0)
(0.0859738 0.00410683 3.08616e-18)
(0.0397883 0.0197319 0)
(0.0115703 0.0331111 0)
(-0.00930966 0.0257751 0)
(-0.0704951 0.0171202 0)
(-0.13166 0.040005 -2.79705e-18)
(-0.224859 0.0596039 0)
(-0.327234 0.0648853 0)
(-0.440505 0.0768013 1.49609e-18)
(-0.576465 0.0834246 0)
(-0.72217 0.0887119 1.0746e-18)
(-0.876412 0.0923484 9.32083e-19)
(-1.03624 0.0941397 0)
(-1.19923 0.0943709 0)
(-1.36318 0.0933804 0)
(-1.52654 0.0915452 0)
(-1.68821 0.0892035 0)
(-1.84756 0.0866213 0)
(-2.00431 0.0839887 4.89622e-19)
(-2.15838 0.0814249 0)
(-2.30985 0.0789938 0)
(-2.45889 0.0767171 -8.31402e-19)
(-2.60564 0.0745887 0)
(-2.75028 0.072584 0)
(-2.89289 0.0706694 0)
(-3.03351 0.0688061 0)
(-3.17212 0.0669565 6.76258e-19)
(-3.30862 0.065084 6.53038e-19)
(-3.44284 0.0631573 6.31581e-19)
(-3.57458 0.0611481 0)
(-3.70354 0.0590346 5.93029e-19)
(-3.82941 0.0567994 0)
(-3.95183 0.054431 0)
(-4.07038 0.0519216 0)
(-4.18466 0.0492687 0)
(-4.29423 0.0464706 0)
(-4.39864 0.0435307 5.00536e-19)
(-4.49745 0.0404515 -4.87209e-19)
(-4.59022 0.0372389 4.74221e-19)
(-4.67649 0.0338954 0)
(-4.75583 0.0304233 0)
(-4.82782 0.026817 0)
(-4.89201 0.0230642 0)
(-4.94794 0.0191366 0)
(-4.99512 0.0149916 0)
(-5.03297 0.0105918 0)
(-5.06081 0.00599918 0)
(-5.0777 0.00151808 0)
(-5.08283 -0.00240521 6.96049e-19)
(-5.07866 -0.00585927 6.68605e-19)
(-5.06535 -0.00921537 6.40364e-19)
(-5.04287 -0.0125398 -6.11226e-19)
(-5.01114 -0.0158329 0)
(-4.9701 -0.0190864 0)
(-4.91973 -0.022291 -5.17683e-19)
(-4.86004 -0.0254361 -4.84231e-19)
(-4.79106 -0.0285127 0)
(-4.71288 -0.0315094 0)
(-4.62562 -0.0344169 3.76122e-19)
(-4.52944 -0.0372223 0)
(-4.42454 -0.0399151 0)
(-4.31116 -0.0424812 0)
(-4.18961 -0.0449091 0)
(-4.06022 -0.0471875 0)
(-3.9233 -0.0493189 1.19168e-19)
(-3.77924 -0.0512981 7.02601e-20)
(-3.62854 -0.053114 0)
(-3.47155 -0.0548098 -3.34052e-20)
(-3.30859 -0.0563871 0)
(-3.14013 -0.057803 0)
(-2.96658 -0.0590693 0)
(-2.78846 -0.0601957 -5.34698e-19)
(-2.60621 -0.0611931 0)
(-2.42029 -0.0620713 7.99553e-19)
(-2.23112 -0.062838 0)
(-2.03911 -0.0635031 1.08883e-18)
(-1.84466 -0.0640765 -1.2438e-18)
(-1.64813 -0.0645702 0)
(-1.44986 -0.0649977 0)
(-1.25016 -0.0653744 0)
(-1.04926 -0.0657187 0)
(-0.847375 -0.0660462 0)
(-0.64464 -0.0663796 0)
(-0.44119 -0.0667376 2.58657e-18)
(-0.236986 -0.0671634 0)
(-0.0324719 -0.0670507 -3.03213e-18)
(0.172771 -0.0656855 0)
(0.375826 -0.0631512 -3.03843e-18)
(0.585215 -0.0615914 0)
(0.777549 -0.0567447 0)
(0.999759 -0.0551965 0)
(1.08693 -0.0198895 0)
(0.0259095 -0.0939681 -4.0181e-18)
(0.0596435 -0.0822119 -3.06928e-18)
(0.0758404 -0.0526554 0)
(0.0812359 -0.0242246 6.30464e-19)
(0.0764973 0.00052207 0)
(0.0626075 0.0200269 0)
(0.0393153 0.0342431 2.26643e-18)
(0.00733871 0.0456642 0)
(-0.0470551 0.0532265 1.41187e-18)
(-0.105059 0.0638485 0)
(-0.168172 0.0815366 2.03874e-18)
(-0.264712 0.100843 0)
(-0.37255 0.11746 0)
(-0.499613 0.144135 8.41483e-19)
(-0.634797 0.173331 -1.38354e-18)
(-0.77823 0.194845 0)
(-0.929604 0.211022 -1.65061e-18)
(-1.08759 0.223387 9.9471e-19)
(-1.24739 0.230984 -1.36027e-18)
(-1.40662 0.234247 -1.24909e-18)
(-1.56361 0.233932 0)
(-1.71726 0.230786 0)
(-1.86701 0.225688 -6.72704e-19)
(-2.01272 0.219409 6.34176e-19)
(-2.15451 0.21256 0)
(-2.29266 0.205581 -5.71362e-19)
(-2.4275 0.198756 2.72219e-19)
(-2.55938 0.192241 0)
(-2.68859 0.1861 0)
(-2.81537 0.18033 -4.81168e-19)
(-2.93989 0.174885 0)
(-3.06223 0.169697 8.97422e-19)
(-3.18243 0.164686 0)
(-3.30045 0.159769 0)
(-3.4162 0.154868 -4.08018e-19)
(-3.52951 0.149911 -3.95793e-19)
(-3.6402 0.144839 3.82348e-19)
(-3.74803 0.1396 0)
(-3.85273 0.134154 3.60965e-19)
(-3.954 0.128471 0)
(-4.05154 0.122534 0)
(-4.14499 0.116334 0)
(-4.23402 0.109869 0)
(-4.31827 0.103143 -6.29552e-19)
(-4.39738 0.0961685 3.05453e-19)
(-4.471 0.0889574 2.97993e-19)
(-4.53879 0.0815296 2.88461e-19)
(-4.60039 0.0739032 5.6095e-19)
(-4.65548 0.066099 -5.44054e-19)
(-4.70374 0.0581324 0)
(-4.74485 0.0500183 0)
(-4.77856 0.0417617 0)
(-4.80465 0.0333538 0)
(-4.82302 0.0247665 -9.16288e-19)
(-4.83381 0.0160172 8.80816e-19)
(-4.83756 0.00733955 0)
(-4.83504 -0.000799489 -4.02887e-19)
(-4.82438 -0.00839552 3.84697e-19)
(-4.80493 -0.015781 3.65333e-19)
(-4.77655 -0.0230204 3.43858e-19)
(-4.73911 -0.0301075 0)
(-4.69255 -0.037021 0)
(-4.63685 -0.0437384 2.82131e-19)
(-4.57201 -0.0502353 -2.63945e-19)
(-4.49808 -0.0564908 0)
(-4.41513 -0.0624823 0)
(-4.32328 -0.0681913 -1.95483e-19)
(-4.22269 -0.0735952 0)
(-4.11356 -0.0786752 0)
(-3.99612 -0.0834092 0)
(-3.87066 -0.0877775 0)
(-3.7375 -0.0917633 -1.66853e-19)
(-3.59697 -0.0953812 -5.74051e-20)
(-3.44943 -0.0986377 -1.06288e-19)
(-3.29541 -0.101467 0)
(-3.13523 -0.103935 1.41112e-20)
(-2.96923 -0.106124 0)
(-2.79787 -0.107966 0)
(-2.62153 -0.109436 0)
(-2.4407 -0.110564 2.20983e-19)
(-2.25583 -0.111376 0)
(-2.06735 -0.111895 -3.17321e-19)
(-1.87567 -0.112143 0)
(-1.68119 -0.11214 4.01487e-19)
(-1.48431 -0.111912 4.60676e-19)
(-1.28536 -0.111483 0)
(-1.08468 -0.110884 0)
(-0.882543 -0.110144 0)
(-0.679196 -0.1093 -1.28437e-18)
(-0.47482 -0.108381 0)
(-0.269534 -0.107423 0)
(-0.0634521 -0.106433 7.7057e-19)
(0.143507 -0.10542 0)
(0.35114 -0.104149 -8.19211e-19)
(0.560191 -0.102533 0)
(0.768376 -0.100263 -8.55961e-19)
(0.981196 -0.0986024 -1.75416e-18)
(1.18216 -0.0931501 -1.78501e-18)
(1.40306 -0.0878119 0)
(1.53869 -0.0423994 0)
(0.0100954 -0.134247 2.96315e-18)
(0.0283104 -0.098902 -1.54196e-18)
(0.0267033 -0.0537471 0)
(0.0163479 -0.0133532 -1.9523e-18)
(-0.00299998 0.0218459 0)
(-0.0317982 0.0519607 0)
(-0.0712128 0.0781721 -1.55661e-18)
(-0.123053 0.102965 0)
(-0.192139 0.127612 -1.45356e-18)
(-0.272054 0.153191 0)
(-0.365227 0.185003 -1.21025e-18)
(-0.47429 0.217413 0)
(-0.595557 0.249502 0)
(-0.726092 0.283886 0)
(-0.858784 0.314106 2.48302e-18)
(-0.994461 0.338653 0)
(-1.13211 0.355928 2.09139e-18)
(-1.26826 0.366526 -6.44004e-19)
(-1.40179 0.370766 5.97957e-19)
(-1.53226 0.369562 5.58278e-19)
(-1.65952 0.364143 0)
(-1.78374 0.355771 9.8615e-19)
(-1.90527 0.345586 1.39913e-18)
(-2.02448 0.334508 -4.42871e-19)
(-2.14169 0.323212 0)
(-2.25716 0.312148 1.20826e-18)
(-2.3711 0.301572 -3.85906e-19)
(-2.48367 0.291594 7.39853e-19)
(-2.59497 0.282221 0)
(-2.70505 0.273392 1.37095e-18)
(-2.81391 0.265007 0)
(-2.92152 0.256947 -6.38962e-19)
(-3.0278 0.249088 0)
(-3.13263 0.241311 0)
(-3.23585 0.233505 -5.77712e-19)
(-3.33728 0.225575 0)
(-3.43669 0.217436 -1.08657e-18)
(-3.53383 0.209023 0)
(-3.62841 0.200285 -1.04375e-21)
(-3.72013 0.191185 9.91299e-19)
(-3.80866 0.181703 0)
(-3.89366 0.171831 0)
(-3.97478 0.16157 9.06031e-19)
(-4.05166 0.150932 4.40247e-19)
(-4.12393 0.139937 -1.2792e-18)
(-4.19124 0.128608 0)
(-4.25323 0.116976 3.99502e-19)
(-4.30954 0.105076 -3.87631e-19)
(-4.35985 0.0929415 1.12334e-18)
(-4.40385 0.0806097 7.22984e-19)
(-4.44123 0.0681193 0)
(-4.47177 0.0555131 0)
(-4.49525 0.0428464 -6.4564e-19)
(-4.51157 0.0301988 1.23906e-18)
(-4.52068 0.017697 -5.93071e-19)
(-4.52248 0.00548388 -5.66411e-19)
(-4.51668 -0.00644026 0)
(-4.50266 -0.0181653 -1.02072e-18)
(-4.48016 -0.0297009 -4.81694e-19)
(-4.44902 -0.0410116 0)
(-4.40914 -0.0520626 0)
(-4.36044 -0.062815 0)
(-4.3029 -0.073231 0)
(-4.23652 -0.0832728 3.38081e-19)
(-4.16133 -0.092906 6.22084e-19)
(-4.07741 -0.102096 0)
(-3.98489 -0.110812 5.05295e-19)
(-3.8839 -0.119023 -4.46637e-19)
(-3.77464 -0.126699 0)
(-3.65733 -0.13381 0)
(-3.53225 -0.140325 0)
(-3.39969 -0.146219 1.02741e-19)
(-3.25998 -0.151503 1.53135e-19)
(-3.11348 -0.156182 1.39022e-19)
(-2.9607 -0.160199 3.69657e-20)
(-2.80191 -0.163639 0)
(-2.63754 -0.166592 0)
(-2.46795 -0.168993 0)
(-2.29355 -0.170813 0)
(-2.11479 -0.172088 2.45068e-19)
(-1.93209 -0.172861 2.99491e-19)
(-1.74588 -0.173167 0)
(-1.55654 -0.173042 -4.05851e-19)
(-1.36447 -0.17252 -4.64711e-19)
(-1.17003 -0.171642 0)
(-0.973564 -0.170446 0)
(-0.775372 -0.16898 0)
(-0.575725 -0.16729 6.54908e-19)
(-0.374846 -0.165432 7.0821e-19)
(-0.172903 -0.163449 0)
(0.0299971 -0.161401 0)
(0.233776 -0.159313 -8.25473e-19)
(0.438551 -0.157223 0)
(0.644156 -0.155039 8.78619e-19)
(0.851455 -0.152931 0)
(1.0586 -0.150398 -9.16193e-19)
(1.26973 -0.148176 9.50266e-19)
(1.47177 -0.14162 9.71392e-19)
(1.68999 -0.133382 1.97985e-18)
(1.84954 -0.0840489 0)
(-0.00845909 -0.145496 0)
(-0.0053522 -0.0928335 2.52001e-18)
(-0.0224819 -0.0369606 0)
(-0.0472229 0.0139854 1.53529e-18)
(-0.0803132 0.0599342 0)
(-0.122784 0.101765 -2.48566e-18)
(-0.17588 0.141076 -2.33174e-18)
(-0.24084 0.179706 0)
(-0.318722 0.218385 -2.05019e-18)
(-0.407747 0.257957 1.88656e-18)
(-0.50732 0.3001 1.74368e-18)
(-0.616069 0.341808 0)
(-0.73174 0.381642 0)
(-0.850321 0.418195 1.35892e-18)
(-0.967893 0.44744 -1.24544e-18)
(-1.08444 0.468743 0)
(-1.19905 0.482005 -2.13935e-18)
(-1.31089 0.487745 0)
(-1.42002 0.487021 0)
(-1.52675 0.481176 -8.75813e-19)
(-1.63152 0.471552 -8.25728e-19)
(-1.7348 0.459488 -7.80813e-19)
(-1.83701 0.446085 3.87861e-22)
(-1.93843 0.432172 0)
(-2.03926 0.418335 0)
(-2.13962 0.404939 -6.44732e-19)
(-2.23955 0.392171 -6.18075e-19)
(-2.33906 0.380092 -5.93746e-19)
(-2.43811 0.368668 0)
(-2.53664 0.357805 -1.65008e-18)
(-2.63457 0.347379 0)
(-2.73178 0.337246 0)
(-2.82814 0.32726 0)
(-2.92349 0.317279 0)
(-3.01764 0.307175 1.39021e-18)
(-3.11037 0.296832 0)
(-3.20143 0.286154 4.35141e-19)
(-3.29056 0.275061 -8.42678e-19)
(-3.37747 0.263493 -1.22591e-18)
(-3.46183 0.251408 -7.93013e-19)
(-3.54332 0.238783 0)
(-3.62159 0.225609 0)
(-3.69628 0.211892 -7.22806e-19)
(-3.76704 0.19765 0)
(-3.83349 0.18291 1.35664e-18)
(-3.89528 0.167709 0)
(-3.95205 0.152091 -2.8944e-22)
(-4.00346 0.136104 0)
(-4.04919 0.119802 -1.09513e-22)
(-4.08891 0.103242 -1.14424e-18)
(-4.12235 0.0864881 0)
(-4.14926 0.0696079 0)
(-4.16942 0.0526816 5.08837e-19)
(-4.18264 0.0358066 -4.87607e-19)
(-4.18875 0.0191013 0)
(-4.18747 0.00266179 4.44026e-19)
(-4.1785 -0.0135338 0)
(-4.16152 -0.0295359 3.98786e-19)
(-4.13636 -0.0453081 0)
(-4.10289 -0.0607847 0)
(-4.06099 -0.0759072 0)
(-4.01061 -0.0906193 0)
(-3.95172 -0.104867 -5.72163e-19)
(-3.88431 -0.118599 0)
(-3.80842 -0.131766 -4.78101e-19)
(-3.72412 -0.144321 0)
(-3.63153 -0.15622 3.06873e-21)
(-3.53079 -0.167423 3.4079e-19)
(-3.42208 -0.177888 0)
(-3.30562 -0.187577 -2.53312e-19)
(-3.18165 -0.19645 0)
(-3.05047 -0.204472 -1.63552e-19)
(-2.91239 -0.211648 -1.15383e-19)
(-2.76778 -0.217975 -7.12829e-20)
(-2.6171 -0.223409 -2.77086e-20)
(-2.46061 -0.228052 -1.14e-20)
(-2.29876 -0.232002 0)
(-2.13189 -0.2352 0)
(-1.9604 -0.237609 0)
(-1.78469 -0.239275 -1.8127e-19)
(-1.60519 -0.240251 2.12866e-19)
(-1.42229 -0.240585 0)
(-1.23636 -0.240329 2.97786e-19)
(-1.04779 -0.239529 0)
(-0.856909 -0.23824 0)
(-0.664046 -0.236517 -8.05039e-19)
(-0.469492 -0.234425 0)
(-0.273498 -0.232027 -4.74113e-19)
(-0.0762691 -0.229399 0)
(0.122036 -0.22661 -1.06097e-18)
(0.321339 -0.223743 -1.10898e-18)
(0.521588 -0.220849 1.15394e-18)
(0.722907 -0.217993 0)
(0.925174 -0.215127 -1.23524e-18)
(1.12923 -0.212371 0)
(1.33354 -0.209212 1.31483e-18)
(1.5416 -0.205965 0)
(1.74245 -0.198222 1.37323e-18)
(1.95822 -0.186975 -5.78004e-21)
(2.13037 -0.137165 -1.44059e-18)
(-0.0239601 -0.12733 0)
(-0.034351 -0.066775 0)
(-0.0648952 -0.0023622 0)
(-0.102524 0.0576238 -2.50504e-18)
(-0.14744 0.113208 0)
(-0.200522 0.165568 7.07792e-22)
(-0.262613 0.216147 1.88918e-18)
(-0.334176 0.266086 0)
(-0.415049 0.315616 3.27882e-18)
(-0.504056 0.364633 -1.51697e-18)
(-0.599711 0.41303 -1.40391e-18)
(-0.699908 0.458569 0)
(-0.80229 0.499269 0)
(-0.90416 0.533383 -1.11239e-18)
(-1.0038 0.559101 -1.03186e-18)
(-1.10103 0.576267 0)
(-1.19561 0.585172 8.95997e-19)
(-1.2877 0.586745 0)
(-1.37786 0.582348 0)
(-1.46666 0.573428 7.43826e-19)
(-1.55465 0.561348 1.40836e-18)
(-1.64228 0.547296 1.33717e-18)
(-1.72985 0.532224 6.36739e-19)
(-1.81754 0.516845 0)
(-1.90545 0.501651 0)
(-1.99359 0.486936 0)
(-2.08193 0.472846 5.3243e-19)
(-2.17039 0.459408 0)
(-2.25889 0.446571 0)
(-2.3473 0.434233 9.4936e-19)
(-2.4355 0.422255 0)
(-2.52332 0.410481 -8.84645e-19)
(-2.61059 0.398753 0)
(-2.69714 0.386916 0)
(-2.78274 0.37483 -8.00842e-19)
(-2.86717 0.362367 0)
(-2.95016 0.34942 7.51403e-19)
(-3.03144 0.335899 1.53524e-22)
(-3.11071 0.321739 1.41239e-18)
(-3.18765 0.306893 6.84699e-19)
(-3.26193 0.291338 6.63943e-19)
(-3.3332 0.275067 0)
(-3.40111 0.258091 0)
(-3.4653 0.240436 -6.04798e-19)
(-3.52541 0.222137 -1.17164e-18)
(-3.5811 0.203246 1.13434e-18)
(-3.63201 0.183818 -1.64592e-18)
(-3.67782 0.163921 -1.0607e-18)
(-3.7182 0.143624 5.12345e-19)
(-3.75285 0.123006 4.93608e-19)
(-3.7815 0.10215 0)
(-3.80389 0.0811455 0)
(-3.81977 0.0600883 0)
(-3.82894 0.0390822 0)
(-3.83116 0.0182338 0)
(-3.82615 -0.00238348 0)
(-3.81365 -0.0227709 0)
(-3.79345 -0.0429326 -6.86892e-19)
(-3.76542 -0.0628084 0)
(-3.72942 -0.0823171 0)
(-3.68537 -0.101382 5.68742e-19)
(-3.63321 -0.119931 5.29318e-19)
(-3.5729 -0.137896 9.78024e-19)
(-3.50445 -0.15521 0)
(-3.42789 -0.17181 0)
(-3.34329 -0.187637 0)
(-3.25076 -0.202634 -6.63391e-19)
(-3.15044 -0.216751 -2.93733e-19)
(-3.0425 -0.229937 0)
(-2.92715 -0.242145 -2.25036e-21)
(-2.80462 -0.253325 0)
(-2.67519 -0.263435 -1.42549e-19)
(-2.53914 -0.272468 -2.05305e-19)
(-2.39688 -0.280415 0)
(-2.24877 -0.287251 -5.79369e-20)
(-2.09513 -0.293078 -4.62882e-21)
(-1.93638 -0.298012 0)
(-1.77284 -0.302001 0)
(-1.6049 -0.305002 2.23213e-19)
(-1.43294 -0.307068 0)
(-1.25735 -0.308264 -7.16267e-19)
(-1.0785 -0.308651 0)
(-0.896775 -0.308293 0)
(-0.712504 -0.307251 0)
(-0.526019 -0.305592 0)
(-0.337622 -0.303388 6.63791e-19)
(-0.147585 -0.30072 -7.14615e-19)
(0.0438587 -0.297672 0)
(0.236522 -0.294341 8.1152e-19)
(0.430271 -0.290819 4.40864e-21)
(0.625048 -0.287206 8.9757e-19)
(0.82082 -0.283576 -9.34667e-19)
(1.01773 -0.280011 0)
(1.2157 -0.276496 1.00186e-18)
(1.41551 -0.273089 0)
(1.61585 -0.269286 -2.11494e-18)
(1.81992 -0.265058 0)
(2.01823 -0.256355 -3.33251e-18)
(2.23137 -0.243023 -1.14132e-18)
(2.40965 -0.194863 1.16279e-18)
(-0.0354424 -0.0871221 0)
(-0.0566709 -0.0226112 -3.76541e-18)
(-0.0984455 0.047876 0)
(-0.146636 0.114921 2.13919e-18)
(-0.200568 0.178005 0)
(-0.260576 0.238333 1.72826e-18)
(-0.327077 0.297062 -1.60506e-18)
(-0.400071 0.354707 0)
(-0.478965 0.410927 -1.39206e-18)
(-0.562574 0.464892 1.29274e-18)
(-0.649316 0.515545 0)
(-0.73733 0.561053 0)
(-0.824805 0.599667 1.03767e-18)
(-0.910242 0.630064 9.65863e-19)
(-0.993014 0.651571 -9.01941e-19)
(-1.07324 0.664539 0)
(-1.15119 0.669713 0)
(-1.22733 0.668213 0)
(-1.30232 0.661406 -1.40297e-18)
(-1.37675 0.650665 1.32716e-18)
(-1.45112 0.63723 -6.28505e-19)
(-1.52579 0.622149 -1.1954e-18)
(-1.60098 0.606244 1.47658e-21)
(-1.67681 0.590128 1.08974e-18)
(-1.75332 0.574215 1.04287e-18)
(-1.83047 0.558752 0)
(-1.90819 0.543852 -9.6009e-19)
(-1.98636 0.529522 -9.23348e-19)
(-2.06487 0.515698 0)
(-2.14355 0.502266 0)
(-2.22226 0.489081 0)
(-2.3008 0.475979 7.99364e-19)
(-2.37901 0.462796 0)
(-2.45665 0.449369 0)
(-2.53352 0.435548 0)
(-2.60937 0.421198 0)
(-2.68393 0.406203 2.36993e-22)
(-2.75692 0.390468 6.59849e-19)
(-2.82804 0.373921 2.45801e-22)
(-2.89698 0.356516 -6.20769e-19)
(-2.96339 0.33823 -6.0215e-19)
(-3.02694 0.319061 -1.16864e-18)
(-3.0873 0.299024 -1.13327e-18)
(-3.1441 0.278154 5.48975e-19)
(-3.19702 0.2565 5.319e-19)
(-3.2457 0.234123 -1.03008e-18)
(-3.28983 0.211095 -7.81679e-22)
(-3.32908 0.187499 1.92781e-18)
(-3.36315 0.163421 -9.30428e-19)
(-3.39175 0.138959 0)
(-3.41461 0.114211 0)
(-3.43148 0.0892834 -8.32166e-19)
(-3.44212 0.064285 -7.98908e-19)
(-3.44631 0.0393238 0)
(-3.44381 0.0145015 0)
(-3.43437 -0.0101099 0)
(-3.41777 -0.034482 0)
(-3.39385 -0.0585822 -1.21265e-21)
(-3.36249 -0.082335 0)
(-3.32357 -0.105648 -5.51485e-19)
(-3.27702 -0.12843 -5.14184e-19)
(-3.22278 -0.150594 -9.57729e-19)
(-3.16082 -0.172059 -8.85854e-19)
(-3.09115 -0.192744 4.07763e-19)
(-3.0138 -0.212574 7.4399e-19)
(-2.92883 -0.231475 0)
(-2.83635 -0.249383 -3.02372e-19)
(-2.7365 -0.266233 -2.67102e-19)
(-2.62944 -0.281968 -4.60988e-19)
(-2.51537 -0.296532 1.94114e-19)
(-2.3945 -0.30987 0)
(-2.2671 -0.321929 2.51048e-19)
(-2.13343 -0.33269 3.70514e-19)
(-1.99389 -0.342142 0)
(-1.84878 -0.35027 1.06767e-19)
(-1.69848 -0.357178 3.36783e-21)
(-1.54335 -0.363003 7.24371e-20)
(-1.38371 -0.367697 0)
(-1.21992 -0.371214 -1.98296e-19)
(-1.05235 -0.373616 0)
(-0.881366 -0.374979 3.15219e-19)
(-0.707314 -0.375376 0)
(-0.530534 -0.374882 0)
(-0.351352 -0.37357 0)
(-0.170073 -0.371525 0)
(0.0130246 -0.368831 5.7609e-19)
(0.19769 -0.365587 1.24419e-18)
(0.383714 -0.361896 0)
(0.570934 -0.357875 -7.03708e-19)
(0.759238 -0.353634 2.21524e-18)
(0.948586 -0.349294 0)
(1.13897 -0.344953 0)
(1.33055 -0.340711 -1.66996e-18)
(1.5233 -0.336583 0)
(1.71795 -0.332586 1.78023e-18)
(1.91335 -0.328223 5.47397e-21)
(2.11261 -0.323204 0)
(2.30725 -0.313844 5.61864e-21)
(2.51723 -0.299362 0)
(2.6975 -0.253975 -1.99173e-18)
(-0.0445707 -0.0292599 0)
(-0.0736285 0.0350844 3.47541e-18)
(-0.124252 0.109824 0)
(-0.179959 0.181882 1.89841e-18)
(-0.239331 0.249808 1.66537e-18)
(-0.302346 0.315058 0)
(-0.369176 0.378601 1.41173e-18)
(-0.439648 0.440408 0)
(-0.513082 0.49962 1.22789e-18)
(-0.588383 0.554955 1.1448e-18)
(-0.664236 0.605019 2.13357e-18)
(-0.739298 0.648296 0)
(-0.812458 0.683526 9.30238e-19)
(-0.883045 0.709964 -8.6822e-19)
(-0.950999 0.727567 1.6268e-18)
(-1.0167 0.736995 0)
(-1.08063 0.739252 1.44005e-18)
(-1.14338 0.735542 0)
(-1.20555 0.727162 1.28374e-18)
(-1.26767 0.715358 1.9115e-21)
(-1.33017 0.701236 0)
(-1.39333 0.685711 1.10443e-18)
(-1.45733 0.669495 1.47754e-21)
(-1.52224 0.65311 1.33028e-21)
(-1.58808 0.636906 -1.93158e-18)
(-1.65478 0.621087 0)
(-1.72225 0.605734 8.90624e-19)
(-1.79036 0.590839 8.57368e-19)
(-1.85896 0.576323 0)
(-1.92789 0.562068 0)
(-1.99696 0.547924 0)
(-2.066 0.533724 0)
(-2.13479 0.519296 0)
(-2.20311 0.504476 0)
(-2.27073 0.489106 0)
(-2.33741 0.473044 0)
(-2.40287 0.456169 -6.36248e-19)
(-2.46683 0.438382 0)
(-2.52899 0.41961 -1.79832e-18)
(-2.58905 0.399807 1.16397e-18)
(-2.64667 0.378952 0)
(-2.70155 0.357049 2.19187e-18)
(-2.75333 0.334123 2.12664e-18)
(-2.80171 0.310216 0)
(-2.84636 0.28539 0)
(-2.88695 0.25972 9.69005e-19)
(-2.92319 0.233291 9.36929e-19)
(-2.95478 0.206202 -9.06054e-19)
(-2.98143 0.178556 0)
(-3.00289 0.150465 0)
(-3.01889 0.122044 0)
(-3.0292 0.0934112 7.82387e-19)
(-3.03361 0.0646867 -1.09606e-21)
(-3.03188 0.0359848 0)
(-3.0238 0.00741045 -6.88097e-19)
(-3.00917 -0.0209564 0)
(-2.9878 -0.0490605 0)
(-2.95954 -0.0768423 5.84818e-19)
(-2.9243 -0.104213 0)
(-2.88198 -0.131071 -5.18964e-19)
(-2.8325 -0.157313 0)
(-2.77582 -0.18284 4.48822e-19)
(-2.71192 -0.207557 -4.17174e-19)
(-2.64079 -0.231372 3.83398e-19)
(-2.56248 -0.254197 -6.94955e-19)
(-2.47705 -0.275947 6.30192e-19)
(-2.38459 -0.296546 5.61237e-19)
(-2.28524 -0.315921 4.9501e-19)
(-2.17915 -0.334004 8.60959e-19)
(-2.06651 -0.350735 3.66579e-19)
(-1.94753 -0.366053 0)
(-1.82243 -0.379898 2.38625e-19)
(-1.69149 -0.392237 -1.73478e-19)
(-1.55505 -0.403059 1.14096e-19)
(-1.41339 -0.412349 -5.10167e-20)
(-1.26692 -0.420217 1.47583e-20)
(-1.11595 -0.426823 -6.69889e-20)
(-0.960796 -0.43212 0)
(-0.801792 -0.436065 1.77514e-19)
(-0.639286 -0.438726 2.31925e-19)
(-0.473608 -0.440191 0)
(-0.305084 -0.440544 3.36386e-19)
(-0.134026 -0.43987 -3.86355e-19)
(0.0392655 -0.438257 0)
(0.214513 -0.435802 0)
(0.391463 -0.432604 -5.21433e-19)
(0.569895 -0.42878 -1.67765e-18)
(0.749623 -0.424449 -1.19148e-18)
(0.930509 -0.419745 0)
(1.11247 -0.414802 -1.33299e-18)
(1.29548 -0.40976 0)
(1.47956 -0.404741 0)
(1.66491 -0.399862 4.21383e-21)
(1.85152 -0.395167 0)
(2.0401 -0.390645 -1.60872e-18)
(2.22966 -0.385811 1.65302e-18)
(2.42328 -0.380186 0)
(2.61323 -0.370456 1.73166e-18)
(2.81928 -0.355485 0)
(2.99865 -0.313439 1.79197e-18)
(-0.0580837 0.0333381 8.33658e-18)
(-0.0886119 0.0972388 0)
(-0.146049 0.177869 -2.30025e-18)
(-0.204857 0.253449 -1.75989e-18)
(-0.265226 0.323711 -1.51409e-18)
(-0.327284 0.391139 0)
(-0.391026 0.456637 0)
(-0.456169 0.519714 -2.38042e-18)
(-0.522049 0.579124 1.11334e-18)
(-0.587753 0.633383 -2.08087e-18)
(-0.652321 0.681088 1.23703e-21)
(-0.714923 0.72105 1.82343e-18)
(-0.775019 0.752478 -1.70755e-18)
(-0.832457 0.775116 -1.60448e-18)
(-0.887481 0.789301 0)
(-0.940592 0.795868 0)
(-0.992364 0.795915 -1.34093e-18)
(-1.04338 0.790644 0)
(-1.09417 0.781261 0)
(-1.14521 0.76889 1.74369e-21)
(-1.19685 0.754507 0)
(-1.24932 0.738908 -1.04036e-18)
(-1.30276 0.722706 1.3985e-21)
(-1.35723 0.706348 -1.90719e-18)
(-1.41272 0.690129 -1.17778e-21)
(-1.46916 0.674208 -8.79762e-19)
(-1.52644 0.658639 0)
(-1.58442 0.643393 0)
(-1.64295 0.628385 0)
(-1.70184 0.613491 1.52022e-18)
(-1.76091 0.598556 0)
(-1.81995 0.583412 0)
(-1.87875 0.567885 0)
(-1.93709 0.551804 0)
(-1.99472 0.535011 0)
(-2.0514 0.51736 0)
(-2.10686 0.498726 -1.22015e-18)
(-2.16082 0.479008 0)
(-2.213 0.458133 1.14954e-18)
(-2.26309 0.436061 -1.11657e-18)
(-2.3108 0.412773 0)
(-2.35581 0.388283 1.28742e-21)
(-2.39783 0.362622 -2.04622e-18)
(-2.43655 0.335847 -9.935e-19)
(-2.47168 0.30803 0)
(-2.50294 0.27926 -9.32685e-19)
(-2.53004 0.249637 9.04418e-19)