/*--------------------------------*- C++ -*----------------------------------*\
| =========                 |                                                 |
| \\      /  F ield         | OpenFOAM: The Open Source CFD Toolbox           |
|  \\    /   O peration     | Version:  5.x                                   |
|   \\  /    A nd           | Web:      www.OpenFOAM.org                      |
|    \\/     M anipulation  |                                                 |
\*---------------------------------------------------------------------------*/
FoamFile
{
    version     2.0;
    format      ascii;
    class       volScalarField;
    location    "151";
    object      k;
}
// * * * * * * * * * * * * * * * * * * * * * * * * * * * * * * * * * * * * * //

dimensions      [0 2 -2 0 0 0 0];

internalField   nonuniform List<scalar> 
5760
(
0.321065
0.223526
0.159632
0.119287
0.0935779
0.0770598
0.0661973
0.0587422
0.0533489
0.0492455
0.0459969
0.0433334
0.0411331
0.0392068
0.0376907
0.0361212
0.0352194
0.034118
0.35959
0.290492
0.232526
0.193404
0.167126
0.149
0.136011
0.126278
0.118673
0.112528
0.107438
0.103133
0.0994588
0.0962382
0.0935173
0.0909018
0.0890516
0.0861568
0.36229
0.315667
0.271078
0.235413
0.208467
0.188107
0.172494
0.160252
0.150417
0.142338
0.135576
0.129824
0.124878
0.120554
0.116799
0.113373
0.110525
0.107441
0.363245
0.328404
0.293102
0.262068
0.236536
0.215912
0.199247
0.185663
0.17445
0.165066
0.157112
0.150289
0.144379
0.139203
0.134657
0.130585
0.127029
0.123586
0.363697
0.335484
0.306533
0.279805
0.25651
0.236736
0.220086
0.206057
0.194176
0.184038
0.175318
0.167754
0.161146
0.155328
0.15018
0.145582
0.141495
0.137667
0.363901
0.339565
0.314992
0.291798
0.270858
0.252439
0.236427
0.222564
0.210552
0.200113
0.190997
0.182997
0.175938
0.169677
0.164098
0.159099
0.154613
0.150455
0.363977
0.341929
0.320339
0.299888
0.281085
0.264153
0.249087
0.235759
0.223991
0.213594
0.204388
0.196213
0.188928
0.182412
0.176564
0.171294
0.16653
0.162125
0.363997
0.343258
0.323648
0.305241
0.288221
0.272695
0.258665
0.246058
0.23476
0.224643
0.215575
0.207436
0.200115
0.193512
0.187542
0.182128
0.1772
0.172644
0.363995
0.343941
0.325538
0.308527
0.292853
0.278498
0.265423
0.25356
0.24282
0.233107
0.224319
0.216362
0.209147
0.202592
0.196625
0.191181
0.186197
0.181583
0.363989
0.344326
0.326736
0.310783
0.296229
0.282933
0.270794
0.25972
0.249624
0.240422
0.232031
0.224374
0.217379
0.210979
0.205115
0.199731
0.194774
0.190175
0.363983
0.344504
0.327388
0.312152
0.298458
0.286066
0.274801
0.264531
0.255147
0.246559
0.238687
0.23146
0.224816
0.218699
0.213058
0.207847
0.203024
0.198543
0.363979
0.344554
0.327614
0.312702
0.299458
0.287604
0.276922
0.267242
0.258428
0.250373
0.242986
0.236192
0.22993
0.224144
0.218787
0.213819
0.209201
0.204897
0.363978
0.344554
0.327634
0.312772
0.299613
0.287878
0.277342
0.267826
0.259188
0.25131
0.244097
0.237469
0.231361
0.225716
0.220487
0.215632
0.211117
0.206911
0.363979
0.344515
0.327472
0.312385
0.298908
0.286782
0.275809
0.265835
0.256736
0.24841
0.240771
0.233747
0.227275
0.221299
0.215771
0.210649
0.205898
0.201489
0.363985
0.344303
0.326722
0.310826
0.296372
0.283198
0.271183
0.260221
0.250217
0.24108
0.232728
0.225083
0.218076
0.211643
0.205729
0.200282
0.19526
0.190631
0.363997
0.343464
0.324282
0.306426
0.28997
0.274943
0.261308
0.24898
0.237852
0.227807
0.218733
0.210524
0.203084
0.196325
0.190172
0.184558
0.179426
0.17474
0.363993
0.340997
0.318284
0.296891
0.277388
0.259943
0.244479
0.230816
0.218746
0.208066
0.198589
0.190154
0.18262
0.175867
0.169793
0.164312
0.159349
0.154866
0.363975
0.335121
0.305944
0.279307
0.256148
0.23633
0.219422
0.204965
0.192546
0.181819
0.172499
0.164358
0.157205
0.150889
0.145282
0.140285
0.135802
0.131806
0.363793
0.321582
0.282338
0.249741
0.223422
0.20211
0.184701
0.170331
0.158346
0.148256
0.139691
0.132365
0.12605
0.120574
0.115788
0.111591
0.107862
0.104605
0.34667
0.287115
0.241833
0.206032
0.177466
0.154566
0.136131
0.121196
0.108997
0.0989475
0.0905949
0.0835975
0.0776843
0.0726579
0.0683391
0.0646288
0.0613785
0.0585724
1.76714e-05
9.88195e-05
0.000204636
0.000294335
0.000376607
0.000467019
0.00056891
0.000685988
0.000819982
0.000973714
0.00115421
0.00137211
0.00163831
0.00196501
0.00236161
0.00282947
0.00336761
0.00397235
0.00463707
0.00535334
0.00611361
0.00691131
0.00774051
0.00859586
0.00947243
0.0103654
0.0112701
0.0121815
0.0130945
0.0140033
0.014902
0.0157842
0.0166442
0.0174784
0.0182908
0.0190654
0.0197976
0.0204827
0.0211161
0.0216932
0.0222102
0.0226638
0.0230516
0.0233718
0.0236236
0.0238061
0.0239045
0.0239351
0.0239278
0.0238465
0.023703
0.0235023
0.0232485
0.022946
0.0225993
0.022213
0.0217916
0.0213396
0.0208614
0.0203611
0.0198431
0.0193114
0.0187684
0.0182177
0.0176625
0.0171058
0.0165501
0.0159978
0.0154507
0.0149107
0.0143794
0.0138581
0.013348
0.0128501
0.0123651
0.0118936
0.0114363
0.0109933
0.010565
0.0101515
0.00975295
0.00936935
0.00900071
0.00864668
0.00830709
0.00798169
0.00767018
0.00737214
0.00708715
0.00681471
0.00655441
0.00630567
0.0060682
0.00584024
0.00562459
0.00541202
0.00522274
0.00499859
0.00484916
0.00430978
9.49563e-05
0.000628102
0.00114173
0.00154185
0.00189983
0.00225886
0.00264955
0.0030794
0.0035474
0.00405382
0.00460583
0.00521449
0.00588796
0.00663216
0.00744842
0.00833193
0.00927724
0.0102784
0.0113297
0.0124263
0.0135635
0.0147376
0.0159444
0.0171801
0.0184405
0.0197212
0.0210172
0.0223233
0.0236336
0.0249414
0.0262394
0.027519
0.0287701
0.0299804
0.0311343
0.0322354
0.0332824
0.0342675
0.0351838
0.0360246
0.0367841
0.0374572
0.0380403
0.0385305
0.0389263
0.0392275
0.0394223
0.0395136
0.0395383
0.0394762
0.0393249
0.0390934
0.0387876
0.0384134
0.0379771
0.0374846
0.0369422
0.0363558
0.0357314
0.0350747
0.0343916
0.0336867
0.0329641
0.032228
0.0314828
0.0307324
0.02998
0.0292287
0.0284813
0.0277401
0.0270073
0.0262847
0.0255741
0.0248767
0.0241938
0.0235264
0.0228752
0.022241
0.0216242
0.0210252
0.0204443
0.0198817
0.0193373
0.0188114
0.0183041
0.0178152
0.0173446
0.0168918
0.0164565
0.0160383
0.0156367
0.0152515
0.0148824
0.0145281
0.0141907
0.0138575
0.0135547
0.0132166
0.0129947
0.0123697
0.000226125
0.00127865
0.00206538
0.00267505
0.00324259
0.00382405
0.00444342
0.00510525
0.00580635
0.00654498
0.00732461
0.00815259
0.00903718
0.00998386
0.0109956
0.0120741
0.0132176
0.014422
0.0156835
0.0169972
0.018358
0.0197604
0.0211991
0.0226687
0.024164
0.0256798
0.0272106
0.0287507
0.0302939
0.0318332
0.033361
0.0348686
0.0363469
0.0377862
0.0391778
0.0405141
0.0417863
0.0429848
0.0441006
0.0451253
0.0460513
0.0468723
0.0475835
0.0481812
0.0486635
0.0490299
0.0492727
0.0493883
0.0494152
0.0493371
0.0491525
0.0488701
0.0484971
0.0480407
0.0475084
0.0469076
0.0462458
0.0455301
0.0447678
0.0439657
0.0431304
0.0422679
0.0413835
0.0404822
0.0395689
0.0386481
0.0377237
0.0367995
0.0358785
0.0349637
0.0340574
0.0331619
0.032279
0.0314106
0.0305579
0.0297222
0.0289044
0.0281055
0.0273259
0.0265663
0.0258271
0.0251084
0.0244105
0.0237336
0.0230777
0.0224427
0.0218285
0.0212348
0.0206611
0.0201072
0.0195728
0.0190576
0.0185615
0.0180836
0.0176262
0.0171805
0.0167684
0.0163347
0.0160439
0.0154729
0.000399683
0.00196309
0.00296431
0.00372464
0.00442895
0.00514515
0.00589884
0.00669389
0.00752654
0.00839526
0.0093042
0.0102618
0.0112773
0.0123585
0.0135101
0.0147334
0.0160267
0.0173869
0.0188089
0.0202873
0.0218166
0.0233911
0.0250054
0.0266543
0.0283328
0.0300356
0.0317574
0.0334923
0.0352335
0.0369738
0.0387047
0.0404172
0.0421014
0.0437467
0.0453423
0.0468769
0.0483387
0.0497165
0.0509992
0.0521769
0.0532406
0.054183
0.0549981
0.0556818
0.0562317
0.0566474
0.0569227
0.0570532
0.0570763
0.0569768
0.0567564
0.0564236
0.0559865
0.0554537
0.0548336
0.0541349
0.0533661
0.0525357
0.0516519
0.0507224
0.0497548
0.048756
0.0477321
0.046689
0.0456322
0.0445667
0.043497
0.0424272
0.0413609
0.0403013
0.0392511
0.0382128
0.0371886
0.0361802
0.0351894
0.0342174
0.0332653
0.0323341
0.0314245
0.0305371
0.0296724
0.0288306
0.028012
0.0272167
0.0264447
0.025696
0.0249704
0.0242675
0.023587
0.0229286
0.0222921
0.0216773
0.021084
0.0205119
0.0199629
0.0194313
0.0189344
0.0184304
0.0180615
0.0175028
0.000603281
0.0026293
0.00382162
0.00470157
0.00550043
0.00629942
0.00713003
0.00799973
0.00890786
0.00985547
0.0108486
0.0118965
0.013009
0.0141933
0.0154535
0.0167903
0.0182018
0.0196841
0.0212329
0.0228433
0.02451
0.026228
0.0279924
0.0297984
0.031641
0.0335149
0.0354146
0.0373334
0.039264
0.0411979
0.0431256
0.0450364
0.0469189
0.0487604
0.0505477
0.0522671
0.0539051
0.0554484
0.0568845
0.058202
0.0593907
0.0604422
0.0613499
0.0621091
0.0627174
0.0631743
0.0634753
0.0636165
0.0636327
0.0635103
0.0632538
0.0628719
0.0623738
0.0617689
0.0610668
0.0602774
0.0594101
0.0584744
0.0574795
0.0564341
0.0553466
0.0542245
0.0530749
0.0519042
0.0507186
0.0495235
0.0483239
0.0471243
0.0459287
0.0447405
0.0435628
0.0423984
0.0412495
0.0401183
0.0390063
0.0379151
0.0368459
0.0357996
0.0347771
0.0337791
0.0328059
0.0318581
0.0309357
0.0300389
0.0291677
0.0283221
0.0275017
0.0267061
0.0259352
0.0251886
0.024466
0.0237674
0.0230927
0.0224419
0.0218164
0.0212131
0.0206453
0.0200837
0.0196439
0.0190568
0.000806471
0.00324389
0.00459695
0.00557181
0.00643632
0.00728492
0.00815727
0.00906733
0.0100196
0.0110185
0.0120713
0.0131871
0.0143746
0.0156397
0.0169856
0.0184125
0.0199186
0.021501
0.0231559
0.0248791
0.0266665
0.0285138
0.0304166
0.0323703
0.03437
0.03641
0.038484
0.0405845
0.042703
0.0448293
0.0469523
0.0490593
0.0511366
0.0531695
0.0551424
0.0570398
0.0588461
0.0605465
0.062127
0.0635749
0.0648791
0.0660303
0.0670216
0.067848
0.068507
0.0689983
0.0693191
0.0694675
0.0694736
0.069327
0.0690338
0.0686037
0.0680466
0.067373
0.0665935
0.0657189
0.0647596
0.0637262
0.0626284
0.061476
0.060278
0.0590426
0.0577777
0.0564902
0.0551866
0.0538731
0.0525549
0.0512371
0.0499237
0.0486187
0.0473253
0.0460465
0.0447847
0.0435421
0.0423207
0.0411218
0.0399469
0.0387971
0.0376731
0.0365757
0.0355053
0.0344625
0.0334474
0.0324601
0.0315006
0.0305688
0.0296642
0.0287865
0.0279355
0.0271109
0.0263125
0.0255403
0.0247942
0.0240744
0.0233822
0.0227164
0.0220869
0.0214745
0.0209708
0.0203532
0.000990237
0.00377355
0.00525744
0.00630743
0.00721905
0.00809841
0.00899358
0.00992579
0.0109051
0.0119389
0.0130352
0.0142024
0.0154477
0.016776
0.0181899
0.0196897
0.0212744
0.0229419
0.0246896
0.0265146
0.0284136
0.0303831
0.0324191
0.0345171
0.0366718
0.0388771
0.0411254
0.043408
0.0457146
0.0480332
0.0503505
0.0526515
0.0549203
0.0571397
0.0592921
0.0613599
0.063326
0.065174
0.0668885
0.068456
0.0698647
0.0711048
0.0721692
0.073053
0.0737538
0.0742713
0.0746052
0.0747567
0.0747487
0.0745764
0.074246
0.0737683
0.0731543
0.0724155
0.0715633
0.0706092
0.0695647
0.0684409
0.0672485
0.0659979
0.0646986
0.0633596
0.0619892
0.0605949
0.0591837
0.0577621
0.0563357
0.0549099
0.0534891
0.0520775
0.0506785
0.0492953
0.0479305
0.0465865
0.0452652
0.0439683
0.0426972
0.041453
0.0402367
0.039049
0.0378904
0.0367613
0.0356621
0.0345929
0.0335535
0.0325437
0.0315632
0.0306114
0.0296883
0.0287935
0.0279269
0.0270885
0.0262785
0.0254971
0.0247455
0.0240236
0.0233393
0.0226808
0.0221198
0.0214745
0.00114188
0.0041986
0.0057845
0.00689321
0.00784021
0.00874071
0.00964985
0.0105954
0.0115922
0.0126505
0.0137789
0.0149849
0.0162748
0.0176529
0.019122
0.0206828
0.0223353
0.0240788
0.025912
0.027833
0.0298396
0.0319287
0.0340968
0.0363391
0.0386497
0.0410215
0.0434456
0.0459113
0.0484062
0.0509162
0.0534254
0.0559163
0.0583704
0.0607683
0.0630904
0.0653173
0.0674303
0.0694117
0.0712455
0.0729175
0.0744155
0.0757298
0.0768533
0.0777814
0.0785123
0.0790462
0.0793848
0.079533
0.0795064
0.0793066
0.0789378
0.0784134
0.0777452
0.0769452
0.0760257
0.0749989
0.0738768
0.0726712
0.0713935
0.0700544
0.0686641
0.0672321
0.065767
0.0642769
0.0627691
0.0612504
0.0597268
0.0582039
0.0566864
0.0551786
0.0536844
0.0522069
0.050749
0.0493132
0.0479015
0.0465157
0.0451574
0.0438277
0.0425276
0.0412578
0.0400191
0.0388118
0.0376362
0.0364926
0.0353808
0.0343004
0.0332509
0.032232
0.0312435
0.0302852
0.029357
0.0284589
0.0275912
0.0267543
0.0259493
0.0251769
0.0244435
0.0237425
0.0231299
0.0224578
0.00125479
0.0045122
0.00617311
0.00732636
0.00830086
0.00921788
0.0101376
0.0110927
0.0121021
0.0131784
0.0143309
0.0155669
0.0168924
0.0183116
0.0198277
0.0214426
0.0231575
0.024973
0.0268892
0.0289054
0.0310201
0.0332307
0.0355335
0.0379233
0.0403932
0.0429345
0.0455364
0.048186
0.0508683
0.0535664
0.0562616
0.0589338
0.0615621
0.0641248
0.0666005
0.0689683
0.0712084
0.0733026
0.0752343
0.0769892
0.0785556
0.079924
0.0810879
0.0820435
0.0827895
0.0833271
0.0836601
0.0837952
0.0837458
0.0835166
0.083108
0.082538
0.0818188
0.0809627
0.0799826
0.0788911
0.0777006
0.0764234
0.0750712
0.0736552
0.0721859
0.0706732
0.0691259
0.0675525
0.0659606
0.0643573
0.0627487
0.0611407
0.0595383
0.0579459
0.0563676
0.0548068
0.0532664
0.051749
0.0502569
0.048792
0.0473557
0.0459495
0.0445744
0.0432311
0.0419204
0.0406428
0.0393985
0.0381878
0.0370107
0.0358667
0.0347551
0.0336756
0.0326281
0.0316125
0.0306288
0.029677
0.0287574
0.0278705
0.0270174
0.0261996
0.025422
0.024682
0.0240229
0.0233245
0.00132801
0.00471778
0.00642886
0.00761392
0.00860976
0.00954088
0.0104703
0.0114344
0.012455
0.0135466
0.014719
0.01598
0.017336
0.018792
0.0203522
0.0220199
0.0237974
0.0256868
0.0276895
0.0298059
0.0320347
0.0343736
0.0368183
0.0393624
0.0419976
0.0447127
0.0474946
0.0503273
0.0531929
0.0560713
0.0589409
0.0617791
0.0645625
0.0672677
0.069872
0.0723535
0.074692
0.0768693
0.0788693
0.0806782
0.0822851
0.0836814
0.0848618
0.0858234
0.0865661
0.0870922
0.0874069
0.0875179
0.0874418
0.0871789
0.0867299
0.0861163
0.0853503
0.0844445
0.0834119
0.0822653
0.0810174
0.0796806
0.0782668
0.0767874
0.0752531
0.0736738
0.0720587
0.0704164
0.0687547
0.0670808
0.0654012
0.0637218
0.0620477
0.0603837
0.0587339
0.0571018
0.0554906
0.053903
0.0523413
0.0508076
0.0493036
0.0478305
0.0463897
0.0449819
0.0436078
0.0422682
0.0409631
0.039693
0.0384578
0.0372573
0.0360903
0.0349569
0.0338568
0.0327902
0.0317569
0.0307571
0.0297911
0.0288597
0.0279638
0.0271052
0.0262881
0.0255124
0.0248117
0.0240881
0.00136334
0.00482531
0.0065637
0.00776902
0.00878085
0.00972482
0.0106655
0.0116404
0.0126731
0.0137796
0.0149712
0.0162569
0.017644
0.0191391
0.0207474
0.0224735
0.0243213
0.0262945
0.0283952
0.0306242
0.0329806
0.0354611
0.0380602
0.0407696
0.0435781
0.0464719
0.0494342
0.0524456
0.0554846
0.0585281
0.0615515
0.0645299
0.0674382
0.0702521
0.072948
0.0755044
0.0779016
0.0801222
0.0821513
0.0839766
0.0855887
0.0869806
0.0881481
0.0890901
0.0898077
0.0903044
0.0905867
0.0906625
0.0905552
0.0902533
0.0897643
0.0891102
0.088303
0.0873553
0.08628
0.0850898
0.0837974
0.082415
0.0809545
0.0794271
0.0778437
0.0762141
0.0745475
0.0728526
0.0711373
0.0694088
0.0676738
0.0659381
0.0642073
0.062486
0.0607785
0.0590886
0.0574195
0.0557741
0.0541548
0.0525639
0.051003
0.0494737
0.0479772
0.0465145
0.0450863
0.0436934
0.0423361
0.0410146
0.0397291
0.0384793
0.0372641
0.0360835
0.0349375
0.0338261
0.0327493
0.0317074
0.0307008
0.0297301
0.0287964
0.0279018
0.0270497
0.0262418
0.025504
0.0247568
0.00135995
0.00483959
0.00658812
0.00780583
0.00883126
0.00978903
0.0107433
0.0117323
0.0127808
0.0139062
0.0151218
0.0164385
0.0178654
0.0194102
0.0210796
0.02288
0.024817
0.0268949
0.0291162
0.0314814
0.0339884
0.0366321
0.0394043
0.0422934
0.0452846
0.0483596
0.0514975
0.0546752
0.0578675
0.0610483
0.0641909
0.0672689
0.0702567
0.0731299
0.075866
0.0784446
0.0808478
0.0830603
0.0850694
0.0868651
0.08844
0.0897891
0.09091
0.0918033
0.0924715
0.0929194
0.0931541
0.0931849
0.093041
0.0926953
0.0921678
0.0914775
0.0906363
0.0896563
0.0885499
0.0873295
0.0860073
0.0845952
0.0831048
0.081547
0.0799323
0.0782704
0.0765705
0.074841
0.0730899
0.0713245
0.0695512
0.0677762
0.0660048
0.064242
0.0624922
0.0607591
0.0590463
0.0573566
0.0556927
0.0540569
0.0524511
0.0508769
0.0493356
0.0478284
0.0463561
0.0449194
0.0435188
0.0421546
0.0408269
0.0395356
0.0382796
0.037059
0.0358739
0.0347243
0.0336104
0.0325325
0.0314909
0.0304864
0.0295202
0.0285943
0.0277117
0.0268752
0.0261048
0.0253361
0.00134013
0.00480649
0.00654799
0.00776677
0.00879773
0.00976432
0.0107308
0.011737
0.0128104
0.0139648
0.0152175
0.0165815
0.0180674
0.0196851
0.0214434
0.0233503
0.0254122
0.0276329
0.0300138
0.0325532
0.035246
0.0380834
0.0410526
0.0441367
0.0473157
0.0505662
0.053863
0.057179
0.0604862
0.0637567
0.0669631
0.0700793
0.0730809
0.0759454
0.0786528
0.0811855
0.0835287
0.0856704
0.0876009
0.0893131
0.0908028
0.0920664
0.0931038
0.0939173
0.0945112
0.0948905
0.0950623
0.0950422
0.0948532
0.0944612
0.0938986
0.0931785
0.0923122
0.0913112
0.0901871
0.0889517
0.0876163
0.0861922
0.0846902
0.083121
0.0814944
0.0798199
0.0781064
0.0763617
0.0745942
0.0728106
0.0710177
0.0692213
0.067427
0.0656397
0.0638638
0.0621034
0.060362
0.0586425
0.056948
0.0552808
0.0536428
0.0520359
0.0504615
0.0489208
0.0474149
0.0459445
0.0445102
0.0431124
0.0417512
0.0404266
0.0391376
0.0378846
0.0366676
0.0354868
0.0343423
0.0332346
0.032164
0.0311314
0.0301379
0.0291856
0.0282771
0.027416
0.0266174
0.0258297
0.00129749
0.00472158
0.00644467
0.00766024
0.0086974
0.00967798
0.0106659
0.0117009
0.0128104
0.0140134
0.0153284
0.0167706
0.018354
0.0200907
0.0219907
0.0240624
0.0263114
0.0287386
0.0313405
0.0341102
0.0370365
0.0401037
0.0432917
0.046577
0.0499332
0.0533323
0.0567453
0.0601431
0.063497
0.0667797
0.0699658
0.0730321
0.0759575
0.0787237
0.0813151
0.0837186
0.0859236
0.0879222
0.0897088
0.0912787
0.0926323
0.0937661
0.0946824
0.0953841
0.0958712
0.0961561
0.0962465
0.0961704
0.0959216
0.0954861
0.0948929
0.0941516
0.0932724
0.0922655
0.0911412
0.0899099
0.088582
0.0871677
0.0856769
0.0841192
0.082504
0.08084
0.0791356
0.0773982
0.0756345
0.0738528
0.0720596
0.0702608
0.0684619
0.0666679
0.0648833
0.0631121
0.0613581
0.0596241
0.0579137
0.0562291
0.0545725
0.0529457
0.0513504
0.0497881
0.0482597
0.0467662
0.0453082
0.0438863
0.0425008
0.0411514
0.0398378
0.0385602
0.0373189
0.0361141
0.034946
0.033815
0.0327215
0.0316666
0.0306512
0.0296777
0.028748
0.0278662
0.0270438
0.02624
0.00123584
0.00458411
0.00627864
0.00748802
0.00853388
0.00953775
0.0105654
0.0116592
0.012843
0.0141407
0.0155767
0.0171701
0.0189364
0.0208886
0.0230363
0.0253847
0.0279347
0.0306776
0.0335981
0.0366784
0.0398967
0.0432266
0.0466389
0.0501034
0.0535894
0.0570667
0.0605065
0.0638813
0.067166
0.0703383
0.0733783
0.0762688
0.0789954
0.0815456
0.0839101
0.0860817
0.0880545
0.0898254
0.0913934
0.0927547
0.0939024
0.0948409
0.0955816
0.0961306
0.0964989
0.0966873
0.0966999
0.09657
0.096264
0.0957947
0.0951799
0.0944279
0.0935472
0.0925468
0.0914357
0.0902231
0.0889179
0.0875294
0.0860663
0.0845375
0.0829513
0.081316
0.0796394
0.0779304
0.0761949
0.0744388
0.0726683
0.0708892
0.069107
0.0673265
0.0655524
0.0637889
0.0620397
0.0603078
0.0585963
0.0569085
0.0552466
0.0536128
0.0520089
0.0504364
0.0488965
0.0473904
0.0459187
0.0444822
0.0430811
0.0417154
0.0403852
0.0390909
0.0378326
0.0366107
0.0354256
0.0342776
0.0331673
0.0320955
0.0310635
0.0300734
0.0291271
0.0282286
0.0273866
0.0265696
0.00116816
0.00442144
0.00608341
0.00729166
0.00836126
0.00941501
0.0105221
0.0117165
0.0130371
0.0145264
0.0162095
0.0181079
0.0202356
0.0225994
0.0251977
0.0280193
0.0310401
0.0342278
0.0375534
0.0409852
0.0444884
0.0480281
0.0515718
0.0550893
0.0585535
0.06194
0.0652271
0.0683956
0.0714293
0.0743154
0.0770427
0.0796027
0.0819883
0.0841942
0.0862178
0.0880572
0.0897107
0.0911793
0.0924534
0.093534
0.0944389
0.0951789
0.0957489
0.0961508
0.0963869
0.0964633
0.0963997
0.0961951
0.0958348
0.0953369
0.0947088
0.0939573
0.0930892
0.0921117
0.091032
0.0898576
0.0885959
0.0872546
0.0858414
0.0843637
0.0828291
0.0812449
0.0796182
0.0779559
0.0762643
0.0745497
0.0728181
0.071075
0.0693259
0.0675755
0.0658285
0.0640889
0.0623609
0.0606486
0.058954
0.0572801
0.0556294
0.0540043
0.0524065
0.050838
0.0493001
0.047794
0.0463205
0.0448805
0.0434744
0.0421026
0.0407657
0.0394638
0.0381975
0.036967
0.0357728
0.0346153
0.0334953
0.0324135
0.0313711
0.0303703
0.0294126
0.0285024
0.0276457
0.0268193
0.00110714
0.00426375
0.00590046
0.00712472
0.00824712
0.00939603
0.0106268
0.0120141
0.0136199
0.0154895
0.0176504
0.0201159
0.0228779
0.0259129
0.0291846
0.032633
0.0361955
0.0398295
0.0434943
0.047151
0.0507664
0.0543113
0.0577634
0.0611047
0.0643209
0.0674003
0.070334
0.0731137
0.0757342
0.0781924
0.0804856
0.0826127
0.0845729
0.0863658
0.0879941
0.0894593
0.0907616
0.0918851
0.0928543
0.0936812
0.0943581
0.0948874
0.095274
0.09552
0.0956265
0.0956033
0.0954649
0.0951884
0.0947892
0.094271
0.0936387
0.0928972
0.0920514
0.0911067
0.0900686
0.0889428
0.0877355
0.0864527
0.085101
0.0836866
0.082216
0.0806957
0.079132
0.0775311
0.075899
0.0742415
0.0725643
0.0708726
0.0691716
0.0674662
0.0657607
0.0640595
0.0623662
0.0606847
0.059018
0.0573692
0.0557409
0.0541354
0.052555
0.0510013
0.0494761
0.0479807
0.0465162
0.0450833
0.0436827
0.0423151
0.0409809
0.0396808
0.0384152
0.0371844
0.0359891
0.0348298
0.0337072
0.032622
0.0315756
0.03057
0.0296065
0.0286895
0.0278231
0.0269912
0.00105622
0.00411869
0.00574787
0.00702338
0.00825592
0.00956173
0.0110764
0.0129031
0.0151199
0.0177677
0.0208355
0.0242815
0.0280187
0.0319538
0.03596
0.0399645
0.0439119
0.0477596
0.0514792
0.0550517
0.0584663
0.061713
0.0647905
0.0676996
0.0704416
0.0730187
0.0754338
0.0776876
0.0797835
0.0817255
0.0835165
0.0851599
0.0866588
0.0880154
0.089235
0.0903159
0.0912479
0.0920616
0.0927529
0.093322
0.0937704
0.0941
0.0943152
0.0944162
0.0944045
0.0942969
0.0940744
0.0937458
0.093314
0.092781
0.0921494
0.0914223
0.090603
0.089695
0.0887024
0.0876294
0.0864806
0.085261
0.0839756
0.0826299
0.0812292
0.0797791
0.0782852
0.0767531
0.0751883
0.073596
0.0719816
0.0703501
0.0687064
0.0670552
0.0654008
0.0637474
0.0620988
0.0604588
0.0588305
0.0572169
0.055621
0.0540451
0.0524914
0.0509619
0.0494584
0.0479823
0.0465344
0.0451163
0.0437288
0.0423727
0.0410486
0.0397573
0.0384992
0.0372748
0.0360848
0.0349298
0.0338104
0.0327277
0.0316827
0.0306773
0.0297128
0.0287934
0.0279218
0.0270877
0.00101586
0.00399216
0.00565387
0.00705057
0.00849065
0.0102255
0.0124446
0.015295
0.0188048
0.0229012
0.0274012
0.0321381
0.0368677
0.0414507
0.0458333
0.0499761
0.0538505
0.057457
0.0608073
0.0639151
0.0667974
0.069464
0.0719339
0.0742217
0.0763403
0.0783003
0.0801111
0.0817788
0.0833106
0.084714
0.085994
0.0871558
0.0882034
0.0891409
0.0899663
0.0906746
0.0912959
0.0918181
0.0922441
0.092578
0.0928185
0.0929667
0.093028
0.0929994
0.0928886
0.0926868
0.0923991
0.0920248
0.0915644
0.0910188
0.090389
0.0896766
0.0888832
0.0880112
0.087063
0.0860417
0.0849505
0.0837933
0.082574
0.0812969
0.0799668
0.0785881
0.0771659
0.075705
0.0742103
0.0726868
0.0711393
0.0695725
0.0679911
0.0663995
0.0648019
0.0632024
0.0616049
0.0600128
0.0584295
0.056858
0.0553013
0.0537617
0.0522417
0.0507433
0.0492682
0.0478179
0.0463939
0.0449975
0.0436298
0.0422917
0.040984
0.0397075
0.0384628
0.0372504
0.0360712
0.0349256
0.0338144
0.0327386
0.0316993
0.0306982
0.0297365
0.0288182
0.0279451
0.0271112
0.000983515
0.00389848
0.0056881
0.00735872
0.00944485
0.0123702
0.0163259
0.0213027
0.0269532
0.0329035
0.0387025
0.0441337
0.0491335
0.0536642
0.057745
0.0614114
0.064688
0.0676216
0.0702574
0.072631
0.074776
0.0767142
0.0784728
0.0800717
0.0815285
0.0828559
0.0840645
0.0851626
0.0861573
0.0870559
0.087864
0.0885863
0.0892265
0.0897822
0.0902519
0.0906579
0.0909915
0.0912538
0.091446
0.0915742
0.0916318
0.0916196
0.0915497
0.0914042
0.0911946
0.0909164
0.0905694
0.0901524
0.0896647
0.089106
0.088476
0.0877751
0.0870039
0.0861632
0.0852547
0.0842801
0.0832417
0.0821422
0.0809847
0.0797726
0.0785096
0.0771998
0.0758472
0.0744561
0.073031
0.0715761
0.0700961
0.0685952
0.0670777
0.065548
0.0640099
0.0624675
0.0609244
0.0593842
0.05785
0.056325
0.054812
0.0533136
0.051832
0.0503694
0.0489277
0.0475085
0.0461135
0.0447439
0.0434011
0.042086
0.0407996
0.0395428
0.0383161
0.0371204
0.0359562
0.0348244
0.0337256
0.0326607
0.0316308
0.0306376
0.0296821
0.0287679
0.0278965
0.0270647
0.000981282
0.00391982
0.00604366
0.00870951
0.0127851
0.0186986
0.0258481
0.0335679
0.0409628
0.0475553
0.053376
0.0584407
0.0627908
0.0665179
0.0697209
0.0724823
0.0748594
0.0769152
0.0787054
0.080272
0.0816486
0.0828621
0.0839358
0.0848879
0.0857378
0.0864948
0.087168
0.0877651
0.0882921
0.0887549
0.089158
0.0895054
0.0897928
0.090022
0.0902094
0.0903462
0.090435
0.0904759
0.0904682
0.0904213
0.0903212
0.0901714
0.089978
0.089732
0.089436
0.0890875
0.088685
0.0882266
0.0877107
0.087136
0.0865016
0.0858068
0.0850513
0.0842351
0.0833588
0.0824234
0.0814303
0.0803813
0.0792787
0.078125
0.0769233
0.0756768
0.0743891
0.0730638
0.0717047
0.0703158
0.0689012
0.0674647
0.0660105
0.0645424
0.0630642
0.0615797
0.0600924
0.0586057
0.0571227
0.0556465
0.0541799
0.0527254
0.0512854
0.049862
0.0484572
0.0470729
0.0457105
0.0443717
0.0430576
0.0417694
0.0405081
0.0392746
0.0380698
0.0368943
0.0357488
0.0346342
0.0335511
0.0325004
0.031483
0.0305006
0.029554
0.0286466
0.0277796
0.0269515
0.00102126
0.00422382
0.00779278
0.013874
0.0226442
0.0329287
0.0426778
0.0509424
0.0579594
0.0636876
0.0683783
0.0722322
0.0753801
0.077961
0.0800894
0.0818516
0.0833128
0.0845213
0.0855293
0.0863738
0.0870801
0.0876717
0.0881671
0.0885792
0.0889281
0.0892161
0.0894509
0.0896391
0.0897851
0.0898933
0.0899672
0.0900049
0.0900013
0.0899784
0.089924
0.0898383
0.0897239
0.0895803
0.0894058
0.0892049
0.0889706
0.0887021
0.0884017
0.0880645
0.08769
0.0872757
0.0868195
0.0863191
0.0857724
0.0851776
0.0845331
0.0838376
0.0830901
0.0822901
0.0814373
0.0805322
0.0795754
0.078568
0.0775116
0.0764082
0.07526
0.0740697
0.0728402
0.0715747
0.0702765
0.0689489
0.0675957
0.0662204
0.0648267
0.0634182
0.0619984
0.0605708
0.0591388
0.0577056
0.0562743
0.0548477
0.0534286
0.0520195
0.0506229
0.0492408
0.0478753
0.0465282
0.0452011
0.0438956
0.042613
0.0413545
0.0401212
0.038914
0.0377339
0.0365814
0.0354575
0.0343628
0.0332981
0.0322641
0.0312619
0.0302926
0.0293574
0.0284588
0.0275988
0.0267753
0.00141817
0.00594832
0.01496
0.0283844
0.0419306
0.0531089
0.061894
0.0686086
0.0738516
0.0778754
0.08101
0.0834696
0.085396
0.0869054
0.0880826
0.0889998
0.089707
0.0902327
0.0906241
0.0909061
0.0910927
0.0912047
0.0912554
0.091252
0.091218
0.0911444
0.0910402
0.0909114
0.0907608
0.0905917
0.0904046
0.0901936
0.0899721
0.0897372
0.0894872
0.0892212
0.0889399
0.0886427
0.0883279
0.0879971
0.0876462
0.0872731
0.0868781
0.0864577
0.08601
0.0855328
0.0850235
0.0844797
0.0838989
0.083279
0.0826181
0.0819145
0.0811669
0.0803741
0.0795357
0.0786513
0.0777211
0.0767458
0.0757263
0.074664
0.0735607
0.0724184
0.0712395
0.0700267
0.0687828
0.0675107
0.0662137
0.064895
0.0635578
0.0622054
0.0608412
0.0594682
0.0580898
0.0567088
0.0553282
0.0539509
0.0525793
0.0512161
0.0498634
0.0485236
0.0471986
0.0458901
0.0446
0.0433296
0.0420804
0.0408536
0.0396503
0.0384715
0.0373181
0.0361909
0.0350907
0.0340181
0.0329739
0.0319587
0.0309735
0.0300194
0.0290975
0.0282096
0.0273586
0.0265406
0.0045149
0.0140646
0.0335991
0.0510693
0.0633091
0.0719717
0.078144
0.0825837
0.0858916
0.0883429
0.0901686
0.0915271
0.0925245
0.0932445
0.0937351
0.0940504
0.094223
0.0942624
0.0942195
0.0941036
0.0939185
0.0936868
0.0934174
0.0931154
0.0927949
0.0924546
0.092099
0.0917321
0.0913564
0.0909756
0.090583
0.0901877
0.089788
0.0893848
0.0889772
0.0885642
0.0881452
0.0877197
0.087286
0.086844
0.0863912
0.0859251
0.0854446
0.0849472
0.0844305
0.0838921
0.0833295
0.0827401
0.0821216
0.0814717
0.0807882
0.0800693
0.0793135
0.0785194
0.0776861
0.076813
0.0759
0.0749471
0.073955
0.0729246
0.0718571
0.0707542
0.0696177
0.0684499
0.0672532
0.06603
0.0647832
0.0635156
0.06223
0.0609295
0.059617
0.0582955
0.0569678
0.0556368
0.0543053
0.0529758
0.0516509
0.0503329
0.0490242
0.0477267
0.0464425
0.0451733
0.0439209
0.0426866
0.0414719
0.0402781
0.0391062
0.0379572
0.0368321
0.0357317
0.0346567
0.0336078
0.0325857
0.031591
0.0306245
0.0296871
0.02878
0.0279043
0.0270643
0.0262522
0.0174458
0.0347912
0.055828
0.0700848
0.0789978
0.0848499
0.0888758
0.0916814
0.0936998
0.0951325
0.0961372
0.0968112
0.0972314
0.0974613
0.0975194
0.0974549
0.0972845
0.0970115
0.0966768
0.0962907
0.0958573
0.0953903
0.0948978
0.0943848
0.0938605
0.0933267
0.0927863
0.0922425
0.0916975
0.0911537
0.0906071
0.0900644
0.089524
0.0889862
0.0884507
0.0879166
0.0873831
0.0868491
0.0863133
0.0857748
0.0852317
0.0846815
0.0841228
0.0835532
0.0829703
0.0823719
0.0817554
0.0811186
0.080459
0.0797744
0.0790626
0.0783219
0.0775505
0.0767471
0.0759105
0.0750399
0.0741348
0.0731953
0.0722214
0.0712138
0.0701733
0.0691012
0.067999
0.0668684
0.0657115
0.0645303
0.0633272
0.0621047
0.0608654
0.0596119
0.0583468
0.0570728
0.0557926
0.0545087
0.0532238
0.0519402
0.0506603
0.0493864
0.0481206
0.0468649
0.0456211
0.0443912
0.0431765
0.0419787
0.0407991
0.0396389
0.0384991
0.0373809
0.0362851
0.0352125
0.0341639
0.0331398
0.032141
0.0311679
0.0302214
0.029302
0.0284111
0.0275488
0.0267214
0.0259154
0.0416752
0.0590254
0.0732349
0.0828021
0.0890034
0.0930869
0.0958569
0.0977443
0.0990402
0.0998856
0.100408
0.100666
0.100727
0.100647
0.100431
0.100095
0.0996787
0.0991866
0.09864
0.098051
0.0974259
0.0967737
0.0961018
0.0954153
0.0947208
0.0940215
0.0933201
0.0926193
0.0919214
0.091226
0.0905369
0.0898535
0.0891767
0.0885065
0.0878428
0.0871851
0.0865322
0.0858834
0.0852372
0.0845927
0.0839483
0.0833017
0.0826513
0.0819951
0.0813309
0.0806566
0.0799702
0.0792694
0.078552
0.0778161
0.0770598
0.0762812
0.0754788
0.0746513
0.0737974
0.0729164
0.0720075
0.0710705
0.0701054
0.0691123
0.068092
0.0670451
0.0659729
0.0648765
0.0637576
0.062618
0.0614594
0.0602839
0.0590938
0.0578911
0.0566782
0.0554573
0.0542309
0.0530011
0.0517703
0.0505407
0.0493143
0.0480932
0.0468794
0.0456748
0.044481
0.0432998
0.0421325
0.0409807
0.0398456
0.0387284
0.0376301
0.0365518
0.0354942
0.0344581
0.0334443
0.0324532
0.0314854
0.0305415
0.029622
0.0287272
0.0278587
0.0270149