/*--------------------------------*- C++ -*----------------------------------*\
| =========                 |                                                 |
| \\      /  F ield         | OpenFOAM: The Open Source CFD Toolbox           |
|  \\    /   O peration     | Version:  5.x                                   |
|   \\  /    A nd           | Web:      www.OpenFOAM.org                      |
|    \\/     M anipulation  |                                                 |
\*---------------------------------------------------------------------------*/
FoamFile
{
    version     2.0;
    format      ascii;
    class       surfaceScalarField;
    location    "151";
    object      phi;
}
// * * * * * * * * * * * * * * * * * * * * * * * * * * * * * * * * * * * * * //

dimensions      [0 3 -1 0 0 0 0];

internalField   nonuniform List<scalar> 
11337
(
4.36892e-07
7.70467e-10
4.09994e-07
2.68979e-08
3.84182e-07
2.58119e-08
3.59165e-07
2.50167e-08
3.38202e-07
2.09633e-08
3.22193e-07
1.60085e-08
3.1011e-07
1.2083e-08
3.00719e-07
9.39121e-09
2.93181e-07
7.53753e-09
2.86999e-07
6.18261e-09
2.8187e-07
5.1287e-09
2.77613e-07
4.25655e-09
2.74137e-07
3.47672e-09
2.71424e-07
2.71255e-09
2.6956e-07
1.86425e-09
2.68783e-07
7.76533e-10
2.69613e-07
-8.30337e-10
-5.45113e-09
2.75064e-07
4.89047e-07
-5.05745e-09
4.86859e-07
2.90857e-08
4.78532e-07
3.4139e-08
4.69103e-07
3.44449e-08
4.59007e-07
3.10595e-08
4.4921e-07
2.58049e-08
4.40404e-07
2.08889e-08
4.32798e-07
1.69973e-08
4.26336e-07
1.39997e-08
4.20875e-07
1.16439e-08
4.1627e-07
9.73332e-09
4.12409e-07
8.11702e-09
4.09217e-07
6.66864e-09
4.06658e-07
5.27144e-09
4.04748e-07
3.77505e-09
4.03542e-07
1.98229e-09
4.0328e-07
-5.68289e-10
-4.55367e-09
4.02382e-07
5.3017e-07
-1.71105e-09
5.3436e-07
2.48963e-08
5.34788e-07
3.37109e-08
5.33092e-07
3.61409e-08
5.29443e-07
3.4708e-08
5.24492e-07
3.07564e-08
5.19102e-07
2.62782e-08
5.13859e-07
2.22405e-08
5.09046e-07
1.88121e-08
5.04768e-07
1.59221e-08
5.01041e-07
1.34601e-08
4.97851e-07
1.13072e-08
4.95175e-07
9.34436e-09
4.92997e-07
7.44984e-09
4.91296e-07
5.47567e-09
4.90028e-07
3.25026e-09
4.8898e-07
4.80048e-10
-2.95863e-09
4.87385e-07
5.85997e-07
1.34194e-09
5.89777e-07
2.11164e-08
5.92504e-07
3.09834e-08
5.93785e-07
3.48605e-08
5.9345e-07
3.50423e-08
5.91653e-07
3.25539e-08
5.88942e-07
2.89888e-08
5.85838e-07
2.53441e-08
5.82689e-07
2.19619e-08
5.79695e-07
1.89161e-08
5.76965e-07
1.61896e-08
5.74553e-07
1.37193e-08
5.72478e-07
1.14187e-08
5.7074e-07
9.18848e-09
5.69302e-07
6.91335e-09
5.68076e-07
4.47636e-09
5.66816e-07
1.73957e-09
-1.28545e-09
5.65143e-07
6.4882e-07
2.88608e-09
6.51638e-07
1.82979e-08
6.54833e-07
2.77886e-08
6.574e-07
3.22937e-08
6.58922e-07
3.35202e-08
6.5923e-07
3.22461e-08
6.58563e-07
2.9655e-08
6.5728e-07
2.66274e-08
6.55676e-07
2.35657e-08
6.53962e-07
2.06299e-08
6.52278e-07
1.78736e-08
6.5071e-07
1.52876e-08
6.49302e-07
1.28267e-08
6.48063e-07
1.04274e-08
6.46959e-07
8.01751e-09
6.45901e-07
5.53387e-09
6.44707e-07
2.93406e-09
2.71206e-10
6.4315e-07
7.17407e-07
3.53907e-09
7.1973e-07
1.59747e-08
7.23001e-07
2.45176e-08
7.26184e-07
2.91106e-08
7.28784e-07
3.09201e-08
7.30496e-07
3.05345e-08
7.31352e-07
2.8799e-08
7.31553e-07
2.64263e-08
7.3131e-07
2.3809e-08
7.30796e-07
2.11439e-08
7.30142e-07
1.85268e-08
7.2944e-07
1.599e-08
7.2874e-07
1.35266e-08
7.28057e-07
1.111e-08
7.27366e-07
8.70837e-09
7.26599e-07
6.30111e-09
7.25637e-07
3.89593e-09
1.55245e-09
7.24356e-07
7.92621e-07
3.72046e-09
7.9476e-07
1.38364e-08
7.98004e-07
2.12735e-08
8.01469e-07
2.56456e-08
8.04683e-07
2.77054e-08
8.07312e-07
2.79053e-08
8.0927e-07
2.6841e-08
8.10636e-07
2.50608e-08
8.11533e-07
2.29117e-08
8.12083e-07
2.05937e-08
8.12388e-07
1.82215e-08
8.12525e-07
1.58537e-08
8.12539e-07
1.35126e-08
8.12446e-07
1.12021e-08
8.12233e-07
8.92163e-09
8.11855e-07
6.67885e-09
8.11249e-07
4.50267e-09
2.44491e-09
8.10356e-07
8.7547e-07
3.57512e-09
8.77515e-07
1.17917e-08
8.80682e-07
1.81068e-08
8.84253e-07
2.20747e-08
8.87805e-07
2.41526e-08
8.91021e-07
2.46894e-08
8.93756e-07
2.41065e-08
8.96003e-07
2.2813e-08
8.97817e-07
2.10976e-08
8.99267e-07
1.91444e-08
9.00418e-07
1.70705e-08
9.01324e-07
1.49472e-08
9.02021e-07
1.28157e-08
9.02523e-07
1.07004e-08
9.02823e-07
8.62103e-09
9.02901e-07
6.60064e-09
9.02731e-07
4.67339e-09
2.88017e-09
9.02295e-07
9.04055e-07
3.22221e-09
9.05908e-07
9.93871e-09
9.08789e-07
1.52258e-08
9.12155e-07
1.87087e-08
9.15649e-07
2.06586e-08
9.18999e-07
2.13398e-08
9.22047e-07
2.10578e-08
9.24742e-07
2.01181e-08
9.27086e-07
1.87542e-08
9.29103e-07
1.7127e-08
9.30827e-07
1.53467e-08
9.32286e-07
1.34875e-08
9.33503e-07
1.15992e-08
9.34486e-07
9.7171e-09
9.35237e-07
7.87066e-09
9.35748e-07
6.08874e-09
9.36018e-07
4.40347e-09
2.8456e-09
9.36053e-07
1.27865e-06
2.59543e-09
1.28095e-06
7.64171e-09
1.28448e-06
1.16943e-08
1.28872e-06
1.44748e-08
1.29326e-06
1.61121e-08
1.29781e-06
1.67908e-08
1.30216e-06
1.67129e-08
1.30619e-06
1.60841e-08
1.30987e-06
1.50757e-08
1.31318e-06
1.38153e-08
1.31613e-06
1.23961e-08
1.31873e-06
1.08867e-08
1.32099e-06
9.33753e-09
1.32292e-06
7.78736e-09
1.32453e-06
6.26822e-09
1.32581e-06
4.80846e-09
1.32678e-06
3.43409e-09
2.16723e-09
1.32745e-06
1.8083e-06
1.70273e-09
1.81102e-06
4.91931e-09
1.81519e-06
7.52478e-09
1.82031e-06
9.3563e-09
1.82596e-06
1.04563e-08
1.83182e-06
1.09314e-08
1.83764e-06
1.08988e-08
1.84324e-06
1.04784e-08
1.84854e-06
9.77736e-09
1.85347e-06
8.88173e-09
1.85801e-06
7.85869e-09
1.86214e-06
6.76052e-09
1.86585e-06
5.62813e-09
1.86914e-06
4.49411e-09
1.87202e-06
3.38505e-09
1.87451e-06
2.32294e-09
1.87662e-06
1.32582e-09
4.07704e-10
1.87838e-06
2.55714e-06
6.21767e-10
2.56023e-06
1.82596e-09
2.56499e-06
2.76884e-09
2.57096e-06
3.38531e-09
2.57772e-06
3.69156e-09
2.58492e-06
3.73052e-09
2.59227e-06
3.54868e-09
2.59956e-06
3.19356e-09
2.60662e-06
2.70981e-09
2.61337e-06
2.1359e-09
2.61973e-06
1.50376e-09
2.62565e-06
8.3971e-10
2.63111e-06
1.65454e-10
2.6361e-06
-5.01165e-10
2.64063e-06
-1.14552e-09
2.64471e-06
-1.7558e-09
2.64836e-06
-2.32285e-09
-2.83969e-09
2.65161e-06
3.61599e-06
-5.58751e-10
3.61947e-06
-1.65786e-09
3.62496e-06
-2.718e-09
3.63201e-06
-3.66238e-09
3.64015e-06
-4.44754e-09
3.64896e-06
-5.08311e-09
3.6581e-06
-5.59201e-09
3.66729e-06
-5.99928e-09
3.67633e-06
-6.32956e-09
3.68507e-06
-6.60286e-09
3.69341e-06
-6.83322e-09
3.70128e-06
-7.02976e-09
3.70864e-06
-7.1981e-09
3.71548e-06
-7.34132e-09
3.7218e-06
-7.46088e-09
3.7276e-06
-7.55727e-09
3.73291e-06
-7.63057e-09
-7.68077e-09
3.73775e-06
2.61547e-06
-1.17534e-09
2.61764e-06
-3.8236e-09
2.62141e-06
-6.48683e-09
2.62639e-06
-8.64852e-09
2.63217e-06
-1.02228e-08
2.63839e-06
-1.13036e-08
2.64477e-06
-1.1978e-08
2.65111e-06
-1.23377e-08
2.65726e-06
-1.24734e-08
2.66311e-06
-1.24567e-08
2.66862e-06
-1.2339e-08
2.67374e-06
-1.21563e-08
2.67848e-06
-1.19337e-08
2.68282e-06
-1.16878e-08
2.68679e-06
-1.14292e-08
2.6904e-06
-1.11645e-08
2.69367e-06
-1.08977e-08
-1.0631e-08
2.69662e-06
2.07548e-06
-1.23972e-09
2.07663e-06
-4.9767e-09
2.07963e-06
-9.48429e-09
2.08391e-06
-1.29311e-08
2.08891e-06
-1.52199e-08
2.09417e-06
-1.6568e-08
2.09936e-06
-1.71703e-08
2.10428e-06
-1.72541e-08
2.10882e-06
-1.70132e-08
2.11294e-06
-1.65783e-08
2.11664e-06
-1.60346e-08
2.11992e-06
-1.54389e-08
2.12281e-06
-1.48273e-08
2.12535e-06
-1.42216e-08
2.12755e-06
-1.36339e-08
2.12946e-06
-1.30707e-08
2.13109e-06
-1.25348e-08
-1.20273e-08
2.13249e-06
1.64552e-06
4.99958e-10
1.64604e-06
-5.50287e-09
1.64901e-06
-1.2454e-08
1.65314e-06
-1.70606e-08
1.65773e-06
-1.98107e-08
1.66218e-06
-2.1011e-08
1.66609e-06
-2.10887e-08
1.66938e-06
-2.05374e-08
1.67204e-06
-1.9681e-08
1.67416e-06
-1.86922e-08
1.67579e-06
-1.76683e-08
1.67702e-06
-1.66652e-08
1.6779e-06
-1.57118e-08
1.6785e-06
-1.48202e-08
1.67886e-06
-1.39939e-08
1.67902e-06
-1.32315e-08
1.67902e-06
-1.25295e-08
-1.18839e-08
1.67887e-06
1.30038e-06
7.55218e-09
1.30227e-06
-7.39884e-09
1.30676e-06
-1.69383e-08
1.31132e-06
-2.16205e-08
1.31533e-06
-2.38214e-08
1.31825e-06
-2.39356e-08
1.32002e-06
-2.28539e-08
1.32083e-06
-2.13548e-08
1.32094e-06
-1.97893e-08
1.32053e-06
-1.82848e-08
1.31976e-06
-1.68935e-08
1.31873e-06
-1.56334e-08
1.31752e-06
-1.45022e-08
1.31619e-06
-1.34891e-08
1.31477e-06
-1.25817e-08
1.31331e-06
-1.17674e-08
1.31182e-06
-1.10357e-08
-1.03745e-08
1.31031e-06
1.02667e-06
1.85917e-08
1.03157e-06
-1.22985e-08
1.0365e-06
-2.18675e-08
1.04006e-06
-2.5181e-08
1.04167e-06
-2.54354e-08
1.04123e-06
-2.34974e-08
1.03934e-06
-2.09642e-08
1.03664e-06
-1.86515e-08
1.03354e-06
-1.66931e-08
1.0303e-06
-1.50375e-08
1.02703e-06
-1.363e-08
1.02382e-06
-1.24258e-08
1.02071e-06
-1.13867e-08
1.0177e-06
-1.04823e-08
1.01481e-06
-9.69143e-09
1.01204e-06
-8.9977e-09
1.0094e-06
-8.39456e-09
-7.8703e-09
1.0069e-06
8.27834e-07
1.43858e-08
8.30068e-07
-1.45328e-08
8.2706e-07
-1.88597e-08
8.22887e-07
-2.10082e-08
8.16975e-07
-1.95229e-08
8.09905e-07
-1.64279e-08
8.02569e-07
-1.36276e-08
7.95509e-07
-1.15921e-08
7.88938e-07
-1.01213e-08
7.8289e-07
-8.98962e-09
7.77334e-07
-8.07428e-09
7.72219e-07
-7.31065e-09
7.67492e-07
-6.66013e-09
7.63107e-07
-6.0975e-09
7.59026e-07
-5.60964e-09
7.55216e-07
-5.18827e-09
7.51656e-07
-4.83483e-09
-4.57015e-09
7.48356e-07
6.681e-07
6.53567e-07
6.34707e-07
6.13699e-07
5.94176e-07
5.77748e-07
5.64121e-07
5.52529e-07
5.42407e-07
5.33418e-07
5.25343e-07
5.18033e-07
5.11373e-07
5.05275e-07
4.99666e-07
4.94477e-07
4.89642e-07
4.85072e-07
3.90072e-09
-3.90126e-09
9.33438e-09
-5.43475e-09
1.31031e-08
-3.76969e-09
1.44886e-08
-1.38647e-09
1.37713e-08
7.16414e-10
1.15366e-08
2.23372e-09
8.22992e-09
3.30573e-09
3.98322e-09
4.2457e-09
-1.30318e-09
5.28555e-09
-7.9102e-09
6.60598e-09
-1.61544e-08
8.24346e-09
-2.62767e-08
1.01213e-08
-3.84464e-08
1.21689e-08
-5.27113e-08
1.42644e-08
-6.89725e-08
1.62612e-08
-8.69846e-08
1.80126e-08
-1.0639e-07
1.94061e-08
-1.26761e-07
2.03707e-08
-1.47642e-07
2.08807e-08
-1.68593e-07
2.09499e-08
-1.89213e-07
2.062e-08
-2.09161e-07
1.99479e-08
-2.28155e-07
1.89952e-08
-2.45974e-07
1.78199e-08
-2.62445e-07
1.64722e-08
-2.77437e-07
1.49928e-08
-2.90848e-07
1.34124e-08
-3.026e-07
1.17535e-08
-3.1263e-07
1.00312e-08
-3.20884e-07
8.25493e-09
-3.27311e-07
6.42792e-09
-3.31855e-07
4.54459e-09
-3.34451e-07
2.5962e-09
-3.35066e-07
6.15633e-10
-3.33817e-07
-1.24729e-09
-3.30903e-07
-2.91205e-09
-3.26446e-07
-4.45557e-09
-3.2052e-07
-5.92375e-09
-3.13197e-07
-7.32032e-09
-3.04554e-07
-8.6397e-09
-2.94677e-07
-9.87392e-09
-2.83659e-07
-1.1015e-08
-2.71599e-07
-1.20566e-08
-2.58602e-07
-1.29934e-08
-2.44775e-07
-1.38235e-08
-2.30226e-07
-1.45468e-08
-2.15062e-07
-1.51611e-08
-1.99402e-07
-1.56588e-08
-1.83348e-07
-1.60523e-08
-1.66999e-07
-1.6349e-08
-1.5045e-07
-1.65488e-08
-1.33798e-07
-1.66527e-08
-1.17133e-07
-1.66679e-08
-1.00534e-07
-1.66009e-08
-8.40785e-08
-1.64593e-08
-6.78326e-08
-1.62501e-08
-5.18573e-08
-1.59807e-08
-3.62052e-08
-1.56579e-08
-2.09227e-08
-1.52892e-08
-6.05755e-09
-1.48723e-08
8.35929e-09
-1.44243e-08
2.23082e-08
-1.39565e-08
3.57557e-08
-1.34548e-08
4.86772e-08
-1.29287e-08
6.10621e-08
-1.23914e-08
7.29027e-08
-1.18469e-08
8.41964e-08
-1.12986e-08
9.49413e-08
-1.07495e-08
1.05141e-07
-1.02023e-08
1.14798e-07
-9.65953e-09
1.23922e-07
-9.1231e-09
1.32519e-07
-8.59522e-09
1.406e-07
-8.07739e-09
1.48174e-07
-7.57123e-09
1.55255e-07
-7.07796e-09
1.61856e-07
-6.59843e-09
1.67991e-07
-6.13323e-09
1.73676e-07
-5.683e-09
1.78926e-07
-5.24808e-09
1.83757e-07
-4.82878e-09
1.88184e-07
-4.42509e-09
1.92223e-07
-4.03701e-09
1.95889e-07
-3.66471e-09
1.992e-07
-3.30833e-09
2.02169e-07
-2.96773e-09
2.04814e-07
-2.64244e-09
2.07147e-07
-2.33177e-09
2.09184e-07
-2.03422e-09
2.10933e-07
-1.74808e-09
2.12406e-07
-1.47033e-09
2.13605e-07
-1.1972e-09
2.14528e-07
-9.20558e-10
2.1516e-07
-6.30105e-10
2.15451e-07
-2.89344e-10
2.15296e-07
1.57418e-10
2.1447e-07
8.27389e-10
2.12697e-07
1.77504e-09
2.08931e-07
3.7677e-09
2.01378e-07
7.55474e-09
1.7843e-08
1.83538e-07
4.67347e-09
-8.57575e-09
7.98574e-09
-8.74899e-09
7.99856e-09
-3.78395e-09
5.26013e-09
1.35056e-09
2.94131e-10
5.68122e-09
-6.61813e-09
9.14471e-09
-1.53631e-08
1.20497e-08
-2.59111e-08
1.47927e-08
-3.82995e-08
1.7673e-08
-5.25174e-08
2.08229e-08
-6.84941e-08
2.42194e-08
-8.6105e-08
2.77312e-08
-1.05102e-07
3.11657e-08
-1.25133e-07
3.42941e-08
-1.4578e-07
3.69087e-08
-1.66622e-07
3.88551e-08
-1.87253e-07
4.00366e-08
-2.07311e-07
4.04286e-08
-2.26504e-07
4.00733e-08
-2.4461e-07
3.90558e-08
-2.61472e-07
3.74814e-08
-2.76983e-07
3.54591e-08
-2.91076e-07
3.3089e-08
-3.03711e-07
3.04557e-08
-3.14864e-07
2.76258e-08
-3.24519e-07
2.46492e-08
-3.32667e-07
2.15618e-08
-3.39302e-07
1.83888e-08
-3.44418e-07
1.51487e-08
-3.48019e-07
1.18559e-08
-3.50114e-07
8.52341e-09
-3.50736e-07
5.16675e-09
-3.49956e-07
1.81724e-09
-3.47875e-07
-1.46533e-09
-3.44482e-07
-4.63931e-09
-3.39686e-07
-7.70585e-09
-3.33472e-07
-1.06683e-08
-3.25878e-07
-1.35164e-08
-3.1696e-07
-1.62356e-08
-3.06789e-07
-1.88087e-08
-2.95442e-07
-2.12185e-08
-2.83006e-07
-2.34491e-08
-2.69573e-07
-2.54871e-08
-2.55241e-07
-2.73223e-08
-2.40113e-07
-2.89494e-08
-2.2429e-07
-3.03683e-08
-2.07875e-07
-3.15746e-08
-1.90974e-07
-3.25585e-08
-1.73686e-07
-3.33395e-08
-1.56105e-07
-3.39294e-08
-1.38325e-07
-3.43288e-08
-1.20436e-07
-3.4543e-08
-1.02521e-07
-3.45842e-08
-8.46584e-08
-3.44651e-08
-6.69204e-08
-3.42e-08
-4.93711e-08
-3.38025e-08
-3.20687e-08
-3.32869e-08
-1.5064e-08
-3.26668e-08
1.59782e-09
-3.19558e-08
1.7885e-08
-3.11644e-08
3.37583e-08
-3.03027e-08
4.91737e-08
-2.9377e-08
6.41106e-08
-2.83969e-08
7.85555e-08
-2.73786e-08
9.24952e-08
-2.63359e-08
1.05921e-07
-2.52773e-08
1.18828e-07
-2.42095e-08
1.31214e-07
-2.31386e-08
1.4308e-07
-2.20697e-08
1.54427e-07
-2.10079e-08
1.65261e-07
-1.9957e-08
1.75589e-07
-1.89211e-08
1.85418e-07
-1.79035e-08
1.94756e-07
-1.69071e-08
2.03615e-07
-1.59342e-08
2.12005e-07
-1.49865e-08
2.19939e-07
-1.40654e-08
2.2743e-07
-1.31719e-08
2.34491e-07
-1.2307e-08
2.41136e-07
-1.14711e-08
2.47377e-07
-1.06644e-08
2.53229e-07
-9.88702e-09
2.58705e-07
-9.13919e-09
2.6382e-07
-8.42075e-09
2.68585e-07
-7.73152e-09
2.73016e-07
-7.07065e-09
2.77123e-07
-6.43692e-09
2.80918e-07
-5.82759e-09
2.84411e-07
-5.23932e-09
2.8761e-07
-4.6664e-09
2.90515e-07
-4.10086e-09
2.93125e-07
-3.52785e-09
2.95422e-07
-2.92477e-09
2.97375e-07
-2.24072e-09
2.98933e-07
-1.39876e-09
2.99971e-07
-2.07808e-10
3.00192e-07
1.55593e-09
2.99153e-07
4.80903e-09
2.95457e-07
1.12524e-08
2.6274e-08
2.87028e-07
2.26394e-09
-1.08406e-08
8.7642e-10
-7.36292e-09
-3.26188e-09
3.53374e-10
-9.37662e-09
7.4645e-09
-1.72712e-08
1.35751e-08
-2.69623e-08
1.88351e-08
-3.84648e-08
2.35516e-08
-5.17304e-08
2.80577e-08
-6.66352e-08
3.25773e-08
-8.29727e-08
3.71599e-08
-1.00457e-07
4.17031e-08
-1.18736e-07
4.60099e-08
-1.37419e-07
4.98485e-08
-1.56127e-07
5.30019e-08
-1.74525e-07
5.53068e-08
-1.92341e-07
5.66704e-08
-2.09377e-07
5.70729e-08
-2.25511e-07
5.65625e-08
-2.40668e-07
5.52297e-08
-2.54804e-07
5.31912e-08
-2.67892e-07
5.05697e-08
-2.79913e-07
4.74803e-08
-2.90846e-07
4.40223e-08
-3.00666e-07
4.02762e-08
-3.09343e-07
3.63042e-08
-3.16846e-07
3.21525e-08
-3.23139e-07
2.78553e-08
-3.28188e-07
2.34387e-08
-3.31964e-07
1.89245e-08
-3.34441e-07
1.43338e-08
-3.35607e-07
9.68935e-09
-3.3546e-07
5.01941e-09
-3.34005e-07
3.63029e-10
-3.31235e-07
-4.23522e-09
-3.27123e-07
-8.75047e-09
-3.21658e-07
-1.31701e-08
-3.14855e-07
-1.74701e-08
-3.0675e-07
-2.16202e-08
-2.97393e-07
-2.55906e-08
-2.86848e-07
-2.93523e-08
-2.75186e-07
-3.28784e-08
-2.62488e-07
-3.61449e-08
-2.48842e-07
-3.91315e-08
-2.3434e-07
-4.18226e-08
-2.19079e-07
-4.4209e-08
-2.03156e-07
-4.62897e-08
-1.8667e-07
-4.80592e-08
-1.69718e-07
-4.95101e-08
-1.52395e-07
-5.06615e-08
-1.34794e-07
-5.15301e-08
-1.17003e-07
-5.21195e-08
-9.9108e-08
-5.24389e-08
-8.11881e-08
-5.25049e-08
-6.33181e-08
-5.23364e-08
-4.55663e-08
-5.19534e-08
-2.79948e-08
-5.1376e-08
-1.06587e-08
-5.06253e-08
6.39283e-09
-4.9721e-08
2.31156e-08
-4.86814e-08
3.94722e-08
-4.7524e-08
5.54282e-08
-4.6262e-08
7.09538e-08
-4.49059e-08
8.60272e-08
-4.34735e-08
1.00632e-07
-4.19863e-08
1.14754e-07
-4.04612e-08
1.28385e-07
-3.89109e-08
1.41518e-07
-3.73453e-08
1.54152e-07
-3.57738e-08
1.66285e-07
-3.42041e-08
1.7792e-07
-3.26433e-08
1.8906e-07
-3.10975e-08
1.99713e-07
-2.95725e-08
2.09884e-07
-2.80733e-08
2.19582e-07
-2.6604e-08
2.28817e-07
-2.51681e-08
2.376e-07
-2.37679e-08
2.45941e-07
-2.24058e-08
2.53853e-07
-2.10834e-08
2.61349e-07
-1.9802e-08
2.68441e-07
-1.85622e-08
2.75142e-07
-1.73648e-08
2.81465e-07
-1.62098e-08
2.87424e-07
-1.50973e-08
2.93031e-07
-1.40272e-08
2.98299e-07
-1.2999e-08
3.03241e-07
-1.20116e-08
3.07868e-07
-1.10632e-08
3.12192e-07
-1.01501e-08
3.16221e-07
-9.26751e-09
3.19962e-07
-8.40724e-09
3.2342e-07
-7.55751e-09
3.26591e-07
-6.69747e-09
3.2946e-07
-5.79391e-09
3.32003e-07
-4.7819e-09
3.34163e-07
-3.55823e-09
3.35851e-07
-1.89504e-09
3.36839e-07
5.68568e-10
3.36848e-07
4.80162e-09
3.35154e-07
1.29471e-08
2.98627e-08
3.31566e-07
-1.33701e-09
-9.50431e-09
-6.64362e-09
-2.05743e-09
-1.37473e-08
7.45638e-09
-2.21729e-08
1.58895e-08
-3.19355e-08
2.33372e-08
-4.31269e-08
3.0026e-08
-5.57718e-08
3.6196e-08
-6.97716e-08
4.20571e-08
-8.49113e-08
4.77166e-08
-1.00893e-07
5.31416e-08
-1.17375e-07
5.81842e-08
-1.34005e-07
6.26399e-08
-1.50464e-07
6.63072e-08
-1.66494e-07
6.90313e-08
-1.8191e-07
7.0723e-08
-1.96599e-07
7.13595e-08
-2.10506e-07
7.09796e-08
-2.23611e-07
6.96674e-08
-2.35914e-07
6.75329e-08
-2.47418e-07
6.46945e-08
-2.58116e-07
6.12672e-08
-2.67989e-07
5.73541e-08
-2.77009e-07
5.30424e-08
-2.85134e-07
4.84022e-08
-2.92318e-07
4.34881e-08
-2.98507e-07
3.83422e-08
-3.03649e-07
3.29976e-08
-3.07692e-07
2.74826e-08
-3.10591e-07
2.18234e-08
-3.12305e-07
1.6048e-08
-3.12803e-07
1.01871e-08
-3.12061e-07
4.27761e-09
-3.1006e-07
-1.63767e-09
-3.06779e-07
-7.51628e-09
-3.02204e-07
-1.33248e-08
-2.96341e-07
-1.90317e-08
-2.89214e-07
-2.45967e-08
-2.80856e-07
-2.99765e-08
-2.71317e-07
-3.51286e-08
-2.60655e-07
-4.00133e-08
-2.48938e-07
-4.45941e-08
-2.36242e-07
-4.88393e-08
-2.2265e-07
-5.27219e-08
-2.0825e-07
-5.62212e-08
-1.93133e-07
-5.93237e-08
-1.77395e-07
-6.20266e-08
-1.61128e-07
-6.43253e-08
-1.44422e-07
-6.62158e-08
-1.27369e-07
-6.77142e-08
-1.10057e-07
-6.88418e-08
-9.25705e-08
-6.96059e-08
-7.49901e-08
-7.00198e-08
-5.73914e-08
-7.01042e-08
-3.98451e-08
-6.98838e-08
-2.24158e-08
-6.9384e-08
-5.16183e-09
-6.86316e-08
1.18633e-08
-6.76523e-08
2.86114e-08
-6.64712e-08
4.50413e-08
-6.51135e-08
6.11167e-08
-6.36018e-08
7.68065e-08
-6.19543e-08
9.20862e-08
-6.0188e-08
1.06935e-07
-5.83252e-08
1.21337e-07
-5.63901e-08
1.35277e-07
-5.44034e-08
1.48745e-07
-5.23818e-08
1.61737e-07
-5.03389e-08
1.74249e-07
-4.82867e-08
1.8628e-07
-4.62359e-08
1.97832e-07
-4.41956e-08
2.08909e-07
-4.21742e-08
2.19516e-07
-4.0179e-08
2.29661e-07
-3.82165e-08
2.3935e-07
-3.62923e-08
2.48594e-07
-3.44105e-08
2.57402e-07
-3.25748e-08
2.65785e-07
-3.07879e-08
2.73755e-07
-2.90521e-08
2.81323e-07
-2.73693e-08
2.88502e-07
-2.57404e-08
2.95304e-07
-2.41663e-08
3.01743e-07
-2.26472e-08
3.07829e-07
-2.11832e-08
3.13577e-07
-1.97739e-08
3.18998e-07
-1.84187e-08
3.24104e-07
-1.71165e-08
3.28906e-07
-1.58648e-08
3.33416e-07
-1.4659e-08
3.37643e-07
-1.3493e-08
3.41593e-07
-1.23565e-08
3.45271e-07
-1.12343e-08
3.48675e-07
-1.01004e-08
3.51795e-07
-8.91242e-09
3.54607e-07
-7.593e-09
3.57064e-07
-6.01457e-09
3.59093e-07
-3.92236e-09
3.60525e-07
-8.63218e-10
3.61187e-07
4.14122e-09
3.60774e-07
1.33611e-08
3.08279e-08
3.5981e-07
-4.69516e-09
-4.80982e-09
-1.27936e-08
6.04007e-09
-2.19459e-08
1.66081e-08
-3.1885e-08
2.58281e-08
-4.27034e-08
3.41552e-08
-5.44967e-08
4.1819e-08
-6.72637e-08
4.89626e-08
-8.08782e-08
5.56712e-08
-9.51105e-08
6.19486e-08
-1.09675e-07
6.7706e-08
-1.24279e-07
7.27882e-08
-1.38663e-07
7.70227e-08
-1.52621e-07
8.02652e-08
-1.66017e-07
8.2427e-08
-1.78774e-07
8.34802e-08
-1.90865e-07
8.34509e-08
-2.02294e-07
8.24089e-08
-2.13078e-07
8.04504e-08
-2.23229e-07
7.76839e-08
-2.32752e-07
7.42172e-08
-2.41636e-07
7.01505e-08
-2.49853e-07
6.55717e-08
-2.57364e-07
6.05542e-08
-2.64119e-07
5.51574e-08
-2.7006e-07
4.94288e-08
-2.75124e-07
4.34068e-08
-2.7925e-07
3.71242e-08
-2.82379e-07
3.06116e-08
-2.84456e-07
2.39003e-08
-2.85432e-07
1.70245e-08
-2.85268e-07
1.00232e-08
-2.83931e-07
2.94049e-09
-2.81395e-07
-4.17415e-09
-2.77639e-07
-1.12714e-08
-2.72659e-07
-1.83044e-08
-2.66465e-07
-2.5225e-08
-2.59081e-07
-3.198e-08
-2.50542e-07
-3.85142e-08
-2.40895e-07
-4.47743e-08
-2.30197e-07
-5.07105e-08
-2.18512e-07
-5.62778e-08
-2.05913e-07
-6.14369e-08
-1.92478e-07
-6.6155e-08
-1.78292e-07
-7.04063e-08
-1.63441e-07
-7.41736e-08
-1.48015e-07
-7.74514e-08
-1.32101e-07
-8.0238e-08
-1.15784e-07
-8.25316e-08
-9.9152e-08
-8.43461e-08
-8.22866e-08
-8.57069e-08
-6.52679e-08
-8.66248e-08
-4.81712e-08
-8.71167e-08
-3.10676e-08
-8.72084e-08
-1.40228e-08
-8.69293e-08
2.90286e-09
-8.63108e-08
1.96536e-08
-8.53837e-08
3.61792e-08
-8.41795e-08
5.24359e-08
-8.27296e-08
6.83844e-08
-8.1064e-08
8.3991e-08
-7.92104e-08
9.92273e-08
-7.71927e-08
1.14071e-07
-7.50338e-08
1.28503e-07
-7.27594e-08
1.42507e-07
-7.03965e-08
1.56071e-07
-6.79689e-08
1.69184e-07
-6.54969e-08
1.81841e-07
-6.29975e-08
1.94039e-07
-6.04858e-08
2.05778e-07
-5.79746e-08
2.17057e-07
-5.54757e-08
2.27883e-07
-5.29991e-08
2.38258e-07
-5.05539e-08
2.48191e-07
-4.8148e-08
2.57687e-07
-4.5788e-08
2.66756e-07
-4.34792e-08
2.75408e-07
-4.12259e-08
2.83652e-07
-3.90318e-08
2.915e-07
-3.68997e-08
2.98963e-07
-3.48318e-08
3.06052e-07
-3.28295e-08
3.1278e-07
-3.08939e-08
3.19158e-07
-2.90252e-08
3.25199e-07
-2.72237e-08
3.30914e-07
-2.54888e-08
3.36315e-07
-2.38198e-08
3.41414e-07
-2.22153e-08
3.46222e-07
-2.06724e-08
3.50749e-07
-1.91858e-08
3.55004e-07
-1.7748e-08
3.58995e-07
-1.63472e-08
3.62726e-07
-1.4965e-08
3.66198e-07
-1.35712e-08
3.69401e-07
-1.21154e-08
3.72319e-07
-1.051e-08
3.74911e-07
-8.60715e-09
3.77122e-07
-6.13247e-09
3.78835e-07
-2.5757e-09
3.79957e-07
3.01967e-09
3.80435e-07
1.28837e-08
3.02222e-08
3.81041e-07
-7.1372e-09
2.32675e-09
-1.70948e-08
1.59969e-08
-2.75438e-08
2.70566e-08
-3.83217e-08
3.66056e-08
-4.95359e-08
4.53692e-08
-6.12657e-08
5.35484e-08
-7.34947e-08
6.11913e-08
-8.61038e-08
6.828e-08
-9.89001e-08
7.47446e-08
-1.11663e-07
8.04684e-08
-1.24187e-07
8.53116e-08
-1.3631e-07
8.91455e-08
-1.47925e-07
9.18804e-08
-1.58978e-07
9.34794e-08
-1.69453e-07
9.39551e-08
-1.79362e-07
9.33604e-08
-1.88729e-07
9.1776e-08
-1.97577e-07
8.92975e-08
-2.05917e-07
8.60234e-08
-2.13747e-07
8.20474e-08
-2.2105e-07
7.74537e-08
-2.27794e-07
7.23151e-08
-2.33931e-07
6.66919e-08
-2.39407e-07
6.06335e-08
-2.44158e-07
5.41809e-08
-2.48121e-07
4.73694e-08
-2.51228e-07
4.02319e-08
-2.53419e-07
3.28018e-08
-2.54634e-07
2.51153e-08
-2.54823e-07
1.72135e-08
-2.53943e-07
9.14337e-09
-2.5196e-07
9.57741e-10
-2.48849e-07
-7.2856e-09
-2.44593e-07
-1.55267e-08
-2.39192e-07
-2.37049e-08
-2.32658e-07
-3.17579e-08
-2.25018e-07
-3.96201e-08
-2.16305e-07
-4.72256e-08
-2.06567e-07
-5.45111e-08
-1.95859e-07
-6.14178e-08
-1.84242e-07
-6.78929e-08
-1.71787e-07
-7.38907e-08
-1.58568e-07
-7.9373e-08
-1.44663e-07
-8.43098e-08
-1.30155e-07
-8.86804e-08
-1.15128e-07
-9.24775e-08
-9.96635e-08
-9.57018e-08
-8.38417e-08
-9.83527e-08
-6.77424e-08
-1.00445e-07
-5.14423e-08
-1.02007e-07
-3.50156e-08
-1.03052e-07
-1.85323e-08
-1.036e-07
-2.05728e-09
-1.03684e-07
1.43487e-08
-1.03336e-07
3.06292e-08
-1.02592e-07
4.67338e-08
-1.01489e-07
6.26169e-08
-1.00064e-07
7.82378e-08
-9.83522e-08
9.35608e-08
-9.63887e-08
1.08555e-07
-9.42062e-08
1.23194e-07
-9.18339e-08
1.37458e-07
-8.92997e-08
1.51329e-07
-8.66327e-08
1.64793e-07
-8.38624e-08
1.77838e-07
-8.10155e-08
1.90455e-07
-7.81155e-08
2.02639e-07
-7.51823e-08
2.14386e-07
-7.22336e-08
2.25695e-07
-6.92848e-08
2.36569e-07
-6.63497e-08
2.47011e-07
-6.34402e-08
2.57025e-07
-6.05668e-08
2.66616e-07
-5.77387e-08
2.75793e-07
-5.49638e-08
2.84562e-07
-5.22483e-08
2.92934e-07
-4.95973e-08
3.00918e-07
-4.70151e-08
3.08524e-07
-4.45051e-08
3.15763e-07
-4.207e-08
3.22646e-07
-3.97115e-08
3.29183e-07
-3.74308e-08
3.35387e-07
-3.52285e-08
3.41269e-07
-3.31047e-08
3.46839e-07
-3.10589e-08
3.5211e-07
-2.90903e-08
3.57093e-07
-2.71971e-08
3.61797e-07
-2.53761e-08
3.66234e-07
-2.36214e-08
3.70411e-07
-2.19245e-08
3.74336e-07
-2.02721e-08
3.78016e-07
-1.86434e-08
3.81449e-07
-1.70043e-08
3.84633e-07
-1.52984e-08
3.87553e-07
-1.34293e-08
3.9018e-07
-1.12338e-08
3.92473e-07
-8.4247e-09
3.9436e-07
-4.46132e-09
3.95811e-07
1.56932e-09
3.96926e-07
1.17693e-08
2.86149e-08
3.98534e-07
-8.62302e-09
1.09492e-08
-1.95979e-08
2.69712e-08
-3.06799e-08
3.81381e-08
-4.17229e-08
4.76482e-08
-5.28119e-08
5.64578e-08
-6.40063e-08
6.47425e-08
-7.5291e-08
7.24757e-08
-8.65782e-08
7.95669e-08
-9.77336e-08
8.58997e-08
-1.08614e-07
9.13486e-08
-1.19099e-07
9.57964e-08
-1.29107e-07
9.91534e-08
-1.38599e-07
1.01372e-07
-1.47567e-07
1.02448e-07
-1.5603e-07
1.02418e-07
-1.64016e-07
1.01346e-07
-1.71551e-07
9.93115e-08
-1.78658e-07
9.64037e-08
-1.85343e-07
9.27081e-08
-1.91599e-07
8.83036e-08
-1.97405e-07
8.32591e-08
-2.02722e-07
7.76329e-08
-2.07504e-07
7.14736e-08
-2.11692e-07
6.48217e-08
-2.15223e-07
5.77126e-08
-2.18033e-07
5.0179e-08
-2.20055e-07
4.22544e-08
-2.21229e-07
3.39753e-08
-2.21497e-07
2.53834e-08
-2.20811e-07
1.6527e-08
-2.19129e-07
7.46145e-09
-2.1642e-07
-1.75095e-09
-2.12663e-07
-1.10429e-08
-2.07847e-07
-2.03425e-08
-2.01975e-07
-2.95765e-08
-1.95062e-07
-3.86695e-08
-1.87137e-07
-4.75449e-08
-1.78235e-07
-5.61267e-08
-1.68402e-07
-6.43428e-08
-1.57692e-07
-7.21265e-08
-1.46165e-07
-7.94182e-08
-1.33888e-07
-8.61669e-08
-1.20929e-07
-9.233e-08
-1.07364e-07
-9.78742e-08
-9.32671e-08
-1.02776e-07
-7.87164e-08
-1.07027e-07
-6.37878e-08
-1.1063e-07
-4.85555e-08
-1.13584e-07
-3.30912e-08
-1.15909e-07
-1.74647e-08
-1.17633e-07
-1.74321e-09
-1.18773e-07
1.40094e-08
-1.19353e-07
2.9734e-08
-1.19409e-07
4.53762e-08
-1.18979e-07
6.08859e-08
-1.18103e-07
7.62176e-08
-1.16822e-07
9.13306e-08
-1.15178e-07
1.06188e-07
-1.13211e-07
1.20758e-07
-1.10961e-07
1.35013e-07
-1.08463e-07
1.4893e-07
-1.05752e-07
1.6249e-07
-1.02861e-07
1.75677e-07
-9.98219e-08
1.88479e-07
-9.66661e-08
2.00885e-07
-9.34231e-08
2.12887e-07
-9.0119e-08
2.2448e-07
-8.67765e-08
2.35662e-07
-8.34157e-08
2.46431e-07
-8.00542e-08
2.56789e-07
-7.67075e-08
2.66738e-07
-7.33894e-08
2.76284e-07
-7.01119e-08
2.85431e-07
-6.68854e-08
2.94186e-07
-6.37186e-08
3.02557e-07
-6.06188e-08
3.10551e-07
-5.75918e-08
3.18179e-07
-5.46426e-08
3.25449e-07
-5.17752e-08
3.32371e-07
-4.89925e-08
3.38957e-07
-4.62967e-08
3.45215e-07
-4.36892e-08
3.51157e-07
-4.11708e-08
3.56794e-07
-3.87416e-08
3.62136e-07
-3.64012e-08
3.67194e-07
-3.41483e-08
3.71979e-07
-3.19813e-08
3.76499e-07
-2.98965e-08
3.80765e-07
-2.78875e-08
3.84786e-07
-2.59452e-08
3.88569e-07
-2.40551e-08
3.9212e-07
-2.21944e-08
3.95442e-07
-2.03259e-08
3.98532e-07
-1.83882e-08
4.01382e-07
-1.62787e-08
4.03971e-07
-1.38232e-08
4.06275e-07
-1.07282e-08
4.08256e-07
-6.44221e-09
4.09936e-07
-1.10695e-10
4.11505e-07
1.02008e-08
2.63528e-08
4.13767e-07
-9.2527e-09
2.02013e-08
-2.05396e-08
3.82574e-08
-3.16899e-08
4.92881e-08
-4.25267e-08
5.84846e-08
-5.30937e-08
6.70246e-08
-6.34313e-08
7.50798e-08
-7.35346e-08
8.25787e-08
-8.33548e-08
8.93869e-08
-9.28188e-08
9.53635e-08
-1.01854e-07
1.00383e-07
-1.10406e-07
1.04349e-07
-1.18453e-07
1.07199e-07
-1.25996e-07
1.08915e-07
-1.33059e-07
1.09511e-07
-1.39674e-07
1.09033e-07
-1.45875e-07
1.07547e-07
-1.5169e-07
1.05126e-07
-1.57135e-07
1.01849e-07
-1.62216e-07
9.77884e-08
-1.6692e-07
9.30078e-08
-1.71223e-07
8.75619e-08
-1.75086e-07
8.14962e-08
-1.78461e-07
7.48488e-08
-1.81292e-07
6.76525e-08
-1.83517e-07
5.99379e-08
-1.85074e-07
5.17364e-08
-1.85903e-07
4.30826e-08
-1.85945e-07
3.4017e-08
-1.85149e-07
2.45871e-08
-1.83471e-07
1.48491e-08
-1.80876e-07
4.86683e-09
-1.7734e-07
-5.28761e-09
-1.72846e-07
-1.55367e-08
-1.67391e-07
-2.57973e-08
-1.60982e-07
-3.59841e-08
-1.5364e-07
-4.60107e-08
-1.45394e-07
-5.57904e-08
-1.36281e-07
-6.52386e-08
-1.26347e-07
-7.42754e-08
-1.15645e-07
-8.28278e-08
-1.04231e-07
-9.08308e-08
-9.21678e-08
-9.82288e-08
-7.95201e-08
-1.04976e-07
-6.63551e-08
-1.11038e-07
-5.27416e-08
-1.16388e-07
-3.87489e-08
-1.21019e-07
-2.44462e-08
-1.24931e-07
-9.90037e-09
-1.28129e-07
4.82631e-09
-1.30635e-07
1.96712e-08
-1.32478e-07
3.45741e-08
-1.33676e-07
4.94791e-08
-1.34258e-07
6.43349e-08
-1.34265e-07
7.90937e-08
-1.33738e-07
9.37121e-08
-1.32722e-07
1.0815e-07
-1.31262e-07
1.22372e-07
-1.29402e-07
1.36347e-07
-1.27187e-07
1.50045e-07
-1.24661e-07
1.63444e-07
-1.21863e-07
1.76522e-07
-1.18832e-07
1.89263e-07
-1.15605e-07
2.01655e-07
-1.12215e-07
2.13684e-07
-1.08697e-07
2.25343e-07
-1.05083e-07
2.36624e-07
-1.01401e-07
2.47523e-07
-9.76764e-08
2.58038e-07
-9.39306e-08
2.68167e-07
-9.01834e-08
2.77912e-07
-8.64522e-08
2.87275e-07
-8.27522e-08
2.9626e-07
-7.90968e-08
3.04873e-07
-7.54975e-08
3.13119e-07
-7.1964e-08
3.21005e-07
-6.85043e-08
3.28538e-07
-6.51251e-08
3.35728e-07
-6.1832e-08
3.42583e-07
-5.86293e-08
3.49111e-07
-5.55206e-08
3.55323e-07
-5.25083e-08
3.61228e-07
-4.95939e-08
3.66836e-07
-4.67786e-08
3.72157e-07
-4.40624e-08
3.77201e-07
-4.14449e-08
3.81978e-07
-3.89248e-08
3.86498e-07
-3.65002e-08
3.90769e-07
-3.41673e-08
3.94801e-07
-3.19194e-08
3.98603e-07
-2.97469e-08
4.02183e-07
-2.76343e-08
4.05546e-07
-2.55573e-08
4.08697e-07
-2.34764e-08
4.11636e-07
-2.13266e-08
4.14359e-07
-1.90011e-08
4.16855e-07
-1.63189e-08
4.19114e-07
-1.29858e-08
4.21126e-07
-8.45445e-09
4.22954e-07
-1.93794e-09
4.24836e-07
8.31972e-09
2.36696e-08
4.27519e-07
-9.17868e-09
2.93795e-08
-2.02187e-08
4.92968e-08
-3.0981e-08
6.005e-08
-4.12387e-08
6.8742e-08
-5.099e-08
7.67756e-08
-6.02562e-08
8.43457e-08
-6.90436e-08
9.13658e-08
-7.73397e-08
9.76827e-08
-8.5123e-08
1.03147e-07
-9.23763e-08
1.07636e-07
-9.90955e-08
1.11068e-07
-1.05295e-07
1.13399e-07
-1.11005e-07
1.14624e-07
-1.16264e-07
1.14769e-07
-1.21111e-07
1.13881e-07
-1.25584e-07
1.12019e-07
-1.29707e-07
1.09249e-07
-1.33495e-07
1.05637e-07
-1.36949e-07
1.01242e-07
-1.40056e-07
9.61144e-08
-1.42789e-07
9.02949e-08
-1.45111e-07
8.3818e-08
-1.46975e-07
7.67128e-08
-1.48328e-07
6.9006e-08
-1.49115e-07
6.07251e-08
-1.4928e-07
5.19011e-08
-1.48769e-07