# Forces     
# CofR       : (5.000000e-01 0.000000e+00 0.000000e+00)
# Time       forces(pressure viscous porous)	moments(pressure viscous porous)
1            	((-2.396493e-02 -1.938459e-01 7.593715e-21) (2.793445e-04 -1.763930e-05 6.589736e-21) (0.000000e+00 0.000000e+00 0.000000e+00)) ((-2.752777e-22 3.019072e-21 7.936242e-02) (-1.379501e-22 1.633473e-21 1.362989e-05) (0.000000e+00 0.000000e+00 0.000000e+00))
2            	((-1.269731e-02 -1.301581e-01 5.030602e-21) (2.992548e-04 2.738721e-08 3.056399e-24) (0.000000e+00 0.000000e+00 0.000000e+00)) ((-2.155054e-22 2.316401e-21 5.115474e-02) (-1.048676e-25 1.868625e-24 8.641428e-06) (0.000000e+00 0.000000e+00 0.000000e+00))
3            	((-7.910712e-03 -1.047653e-01 4.965669e-21) (3.195316e-04 1.502215e-05 2.391829e-22) (0.000000e+00 0.000000e+00 0.000000e+00)) ((-2.152832e-22 2.310934e-21 3.982542e-02) (-5.092718e-24 6.113253e-23 2.267714e-06) (0.000000e+00 0.000000e+00 0.000000e+00))
4            	((-5.775085e-03 -9.007323e-02 5.288176e-21) (3.209079e-04 2.059796e-05 6.515031e-23) (0.000000e+00 0.000000e+00 0.000000e+00)) ((-2.146845e-22 2.321842e-21 3.374240e-02) (-1.341895e-24 1.647557e-23 -5.672068e-07) (0.000000e+00 0.000000e+00 0.000000e+00))
5            	((-4.376322e-03 -8.104117e-02 5.255987e-21) (3.160256e-04 2.156097e-05 7.101564e-23) (0.000000e+00 0.000000e+00 0.000000e+00)) ((-2.068769e-22 2.245657e-21 3.021893e-02) (-1.519852e-24 1.850966e-23 -1.521383e-06) (0.000000e+00 0.000000e+00 0.000000e+00))
6            	((-3.702918e-03 -7.652477e-02 5.173316e-21) (3.066042e-04 1.990482e-05 7.652248e-23) (0.000000e+00 0.000000e+00 0.000000e+00)) ((-1.974361e-22 2.151278e-21 2.867535e-02) (-1.599668e-24 1.910482e-23 -1.252113e-06) (0.000000e+00 0.000000e+00 0.000000e+00))
7            	((-3.790015e-03 -7.862106e-02 4.781736e-21) (2.945323e-04 1.912653e-05 1.371610e-22) (0.000000e+00 0.000000e+00 0.000000e+00)) ((-1.877879e-22 2.038998e-21 2.966220e-02) (-2.990074e-24 3.514133e-23 -1.460693e-06) (0.000000e+00 0.000000e+00 0.000000e+00))
8            	((-3.980264e-03 -8.157542e-02 4.409826e-21) (2.784728e-04 1.831462e-05 1.519210e-22) (0.000000e+00 0.000000e+00 0.000000e+00)) ((-1.790021e-22 1.935963e-21 3.097652e-02) (-3.303107e-24 3.880090e-23 -1.610890e-06) (0.000000e+00 0.000000e+00 0.000000e+00))
9            	((-4.068379e-03 -8.411184e-02 4.152287e-21) (2.632738e-04 1.710684e-05 1.917501e-22) (0.000000e+00 0.000000e+00 0.000000e+00)) ((-1.747877e-22 1.882460e-21 3.198674e-02) (-4.121193e-24 4.857157e-23 -1.522772e-06) (0.000000e+00 0.000000e+00 0.000000e+00))
10           	((-3.583632e-03 -8.255736e-02 3.863359e-21) (2.458911e-04 1.585361e-05 1.796697e-22) (0.000000e+00 0.000000e+00 0.000000e+00)) ((-1.687166e-22 1.809615e-21 3.124666e-02) (-3.858926e-24 4.540737e-23 -1.412672e-06) (0.000000e+00 0.000000e+00 0.000000e+00))
11           	((-2.643538e-03 -7.862449e-02 3.661421e-21) (2.255598e-04 1.488867e-05 1.896546e-22) (0.000000e+00 0.000000e+00 0.000000e+00)) ((-1.648010e-22 1.761831e-21 2.941707e-02) (-4.066201e-24 4.831387e-23 -1.500401e-06) (0.000000e+00 0.000000e+00 0.000000e+00))
12           	((-1.864894e-03 -7.259890e-02 4.092843e-21) (2.034825e-04 1.453188e-05 1.479336e-22) (0.000000e+00 0.000000e+00 0.000000e+00)) ((-1.690394e-22 1.824526e-21 2.690210e-02) (-2.996796e-24 3.606319e-23 -1.898018e-06) (0.000000e+00 0.000000e+00 0.000000e+00))
13           	((-1.206503e-03 -6.906587e-02 3.944978e-21) (1.833866e-04 1.351451e-05 1.755397e-22) (0.000000e+00 0.000000e+00 0.000000e+00)) ((-1.661041e-22 1.788885e-21 2.527460e-02) (-3.742028e-24 4.452048e-23 -1.995001e-06) (0.000000e+00 0.000000e+00 0.000000e+00))
14           	((3.295406e-05 -6.376971e-02 3.778873e-21) (1.583578e-04 1.302823e-05 1.748853e-22) (0.000000e+00 0.000000e+00 0.000000e+00)) ((-1.634892e-22 1.755362e-21 2.280162e-02) (-3.728830e-24 4.455832e-23 -2.445223e-06) (0.000000e+00 0.000000e+00 0.000000e+00))
15           	((5.620655e-06 -6.332501e-02 3.952217e-21) (1.399665e-04 1.244458e-05 1.626181e-22) (0.000000e+00 0.000000e+00 0.000000e+00)) ((-1.670469e-22 1.798257e-21 2.257179e-02) (-3.378136e-24 3.971945e-23 -2.678105e-06) (0.000000e+00 0.000000e+00 0.000000e+00))
16           	((6.149302e-04 -5.779191e-02 4.000667e-21) (1.205826e-04 1.183086e-05 1.212265e-22) (0.000000e+00 0.000000e+00 0.000000e+00)) ((-1.646592e-22 1.777963e-21 2.026622e-02) (-2.515356e-24 3.013552e-23 -2.903231e-06) (0.000000e+00 0.000000e+00 0.000000e+00))
17           	((1.412462e-03 -5.159441e-02 3.661625e-21) (1.039254e-04 1.109787e-05 1.065889e-22) (0.000000e+00 0.000000e+00 0.000000e+00)) ((-1.547833e-22 1.666217e-21 1.767249e-02) (-2.306755e-24 2.769388e-23 -3.027386e-06) (0.000000e+00 0.000000e+00 0.000000e+00))
18           	((2.318522e-03 -4.617047e-02 3.290623e-21) (8.691007e-05 1.031951e-05 1.456645e-22) (0.000000e+00 0.000000e+00 0.000000e+00)) ((-1.469632e-22 1.572447e-21 1.528153e-02) (-3.124544e-24 3.743726e-23 -3.142940e-06) (0.000000e+00 0.000000e+00 0.000000e+00))
19           	((2.287536e-03 -4.595890e-02 3.302007e-21) (7.721236e-05 9.696455e-06 1.466895e-22) (0.000000e+00 0.000000e+00 0.000000e+00)) ((-1.474752e-22 1.577922e-21 1.517136e-02) (-3.073826e-24 3.637535e-23 -3.123018e-06) (0.000000e+00 0.000000e+00 0.000000e+00))
20           	((2.583853e-03 -4.218921e-02 3.200745e-21) (6.742428e-05 9.063317e-06 1.086897e-22) (0.000000e+00 0.000000e+00 0.000000e+00)) ((-1.429367e-22 1.529380e-21 1.364550e-02) (-2.289225e-24 2.736139e-23 -3.077247e-06) (0.000000e+00 0.000000e+00 0.000000e+00))
21           	((2.760254e-03 -4.014093e-02 3.119064e-21) (6.206397e-05 8.523477e-06 1.273646e-22) (0.000000e+00 0.000000e+00 0.000000e+00)) ((-1.403366e-22 1.500350e-21 1.280563e-02) (-2.666980e-24 3.179064e-23 -2.973856e-06) (0.000000e+00 0.000000e+00 0.000000e+00))
22           	((3.034739e-03 -3.796065e-02 2.915667e-21) (5.725627e-05 8.160086e-06 1.338380e-22) (0.000000e+00 0.000000e+00 0.000000e+00)) ((-1.359573e-22 1.448064e-21 1.186983e-02) (-2.846802e-24 3.391925e-23 -2.921665e-06) (0.000000e+00 0.000000e+00 0.000000e+00))
23           	((3.565785e-03 -3.515031e-02 2.750650e-21) (5.174974e-05 7.934833e-06 1.313341e-22) (0.000000e+00 0.000000e+00 0.000000e+00)) ((-1.327873e-22 1.409299e-21 1.061834e-02) (-2.777273e-24 3.323070e-23 -2.923152e-06) (0.000000e+00 0.000000e+00 0.000000e+00))
24           	((3.509125e-03 -3.497870e-02 2.795805e-21) (5.081195e-05 7.836639e-06 1.407161e-22) (0.000000e+00 0.000000e+00 0.000000e+00)) ((-1.338836e-22 1.422091e-21 1.054103e-02) (-2.968555e-24 3.524879e-23 -2.859386e-06) (0.000000e+00 0.000000e+00 0.000000e+00))
25           	((3.459086e-03 -3.484206e-02 2.821476e-21) (5.152114e-05 7.733156e-06 1.325472e-22) (0.000000e+00 0.000000e+00 0.000000e+00)) ((-1.346728e-22 1.430948e-21 1.047417e-02) (-2.803480e-24 3.327079e-23 -2.747159e-06) (0.000000e+00 0.000000e+00 0.000000e+00))
26           	((3.586262e-03 -3.395680e-02 2.755497e-21) (5.226028e-05 7.665507e-06 1.311543e-22) (0.000000e+00 0.000000e+00 0.000000e+00)) ((-1.336273e-22 1.417567e-21 1.007256e-02) (-2.776790e-24 3.306924e-23 -2.642311e-06) (0.000000e+00 0.000000e+00 0.000000e+00))
27           	((3.667338e-03 -3.324794e-02 2.824139e-21) (5.354957e-05 7.777218e-06 1.368806e-22) (0.000000e+00 0.000000e+00 0.000000e+00)) ((-1.348079e-22 1.432374e-21 9.768528e-03) (-2.872489e-24 3.427043e-23 -2.596530e-06) (0.000000e+00 0.000000e+00 0.000000e+00))
28           	((3.879660e-03 -3.217665e-02 2.767730e-21) (5.372880e-05 7.799396e-06 1.313359e-22) (0.000000e+00 0.000000e+00 0.000000e+00)) ((-1.340326e-22 1.422066e-21 9.269231e-03) (-2.760870e-24 3.300287e-23 -2.541080e-06) (0.000000e+00 0.000000e+00 0.000000e+00))
29           	((3.969397e-03 -3.144413e-02 2.888805e-21) (5.434808e-05 7.829398e-06 1.319211e-22) (0.000000e+00 0.000000e+00 0.000000e+00)) ((-1.362085e-22 1.449077e-21 8.948847e-03) (-2.741959e-24 3.281360e-23 -2.473340e-06) (0.000000e+00 0.000000e+00 0.000000e+00))
30           	((3.958228e-03 -3.163857e-02 2.978420e-21) (5.660815e-05 7.858678e-06 1.322121e-22) (0.000000e+00 0.000000e+00 0.000000e+00)) ((-1.385498e-22 1.476045e-21 9.002321e-03) (-2.771018e-24 3.302703e-23 -2.388444e-06) (0.000000e+00 0.000000e+00 0.000000e+00))
31           	((3.958674e-03 -3.163559e-02 3.003562e-21) (5.877603e-05 7.825743e-06 1.300554e-22) (0.000000e+00 0.000000e+00 0.000000e+00)) ((-1.395266e-22 1.486665e-21 8.970766e-03) (-2.738006e-24 3.263668e-23 -2.273074e-06) (0.000000e+00 0.000000e+00 0.000000e+00))
32           	((4.026582e-03 -3.125684e-02 3.020473e-21) (6.083404e-05 7.722832e-06 1.458948e-22) (0.000000e+00 0.000000e+00 0.000000e+00)) ((-1.400762e-22 1.492783e-21 8.785583e-03) (-3.069087e-24 3.665925e-23 -2.125509e-06) (0.000000e+00 0.000000e+00 0.000000e+00))
33           	((4.061615e-03 -3.121112e-02 3.050159e-21) (6.323039e-05 7.672865e-06 1.561621e-22) (0.000000e+00 0.000000e+00 0.000000e+00)) ((-1.410851e-22 1.503943e-21 8.734951e-03) (-3.280671e-24 3.918546e-23 -2.008281e-06) (0.000000e+00 0.000000e+00 0.000000e+00))
34           	((4.167470e-03 -3.041803e-02 3.046288e-21) (6.515936e-05 7.636513e-06 1.345477e-22) (0.000000e+00 0.000000e+00 0.000000e+00)) ((-1.407733e-22 1.500768e-21 8.390074e-03) (-2.831376e-24 3.386116e-23 -1.906830e-06) (0.000000e+00 0.000000e+00 0.000000e+00))
35           	((4.177697e-03 -3.054424e-02 3.105081e-21) (6.822056e-05 7.600931e-06 1.444785e-22) (0.000000e+00 0.000000e+00 0.000000e+00)) ((-1.423563e-22 1.518909e-21 8.417390e-03) (-3.037495e-24 3.626038e-23 -1.786493e-06) (0.000000e+00 0.000000e+00 0.000000e+00))
36           	((4.218441e-03 -3.022383e-02 3.074935e-21) (7.060167e-05 7.589982e-06 1.380021e-22) (0.000000e+00 0.000000e+00 0.000000e+00)) ((-1.418848e-22 1.512854e-21 8.261383e-03) (-2.899059e-24 3.465521e-23 -1.687793e-06) (0.000000e+00 0.000000e+00 0.000000e+00))
37           	((4.234003e-03 -3.032659e-02 3.120649e-21) (7.317761e-05 7.579809e-06 1.514801e-22) (0.000000e+00 0.000000e+00 0.000000e+00)) ((-1.432099e-22 1.527859e-21 8.279116e-03) (-3.183737e-24 3.802405e-23 -1.586863e-06) (0.000000e+00 0.000000e+00 0.000000e+00))
38           	((4.282365e-03 -2.982565e-02 3.150113e-21) (7.519847e-05 7.614248e-06 1.420307e-22) (0.000000e+00 0.000000e+00 0.000000e+00)) ((-1.436111e-22 1.533207e-21 8.062125e-03) (-2.978096e-24 3.562853e-23 -1.518634e-06) (0.000000e+00 0.000000e+00 0.000000e+00))
39           	((4.346266e-03 -2.956926e-02 3.144307e-21) (7.741836e-05 7.592936e-06 1.427018e-22) (0.000000e+00 0.000000e+00 0.000000e+00)) ((-1.437300e-22 1.534043e-21 7.932703e-03) (-2.994344e-24 3.579731e-23 -1.429964e-06) (0.000000e+00 0.000000e+00 0.000000e+00))
40           	((4.368167e-03 -2.946187e-02 3.138565e-21) (7.882580e-05 7.602773e-06 1.500654e-22) (0.000000e+00 0.000000e+00 0.000000e+00)) ((-1.440742e-22 1.537032e-21 7.854614e-03) (-3.145622e-24 3.762765e-23 -1.378431e-06) (0.000000e+00 0.000000e+00 0.000000e+00))
41           	((4.375043e-03 -2.964075e-02 3.187930e-21) (8.079002e-05 7.585813e-06 1.445656e-22) (0.000000e+00 0.000000e+00 0.000000e+00)) ((-1.454584e-22 1.552790e-21 7.906558e-03) (-3.025180e-24 3.615733e-23 -1.301085e-06) (0.000000e+00 0.000000e+00 0.000000e+00))
42           	((4.413042e-03 -2.918336e-02 3.215679e-21) (8.218648e-05 7.631358e-06 1.432944e-22) (0.000000e+00 0.000000e+00 0.000000e+00)) ((-1.458557e-22 1.558013e-21 7.707989e-03) (-2.995411e-24 3.586474e-23 -1.264448e-06) (0.000000e+00 0.000000e+00 0.000000e+00))
43           	((4.470391e-03 -2.894349e-02 3.204359e-21) (8.404300e-05 7.631958e-06 1.452803e-22) (0.000000e+00 0.000000e+00 0.000000e+00)) ((-1.457995e-22 1.556893e-21 7.589312e-03) (-3.048057e-24 3.645143e-23 -1.202725e-06) (0.000000e+00 0.000000e+00 0.000000e+00))
44           	((4.479023e-03 -2.872011e-02 3.220503e-21) (8.528970e-05 7.696880e-06 1.498182e-22) (0.000000e+00 0.000000e+00 0.000000e+00)) ((-1.463601e-22 1.563076e-21 7.475954e-03) (-3.139637e-24 3.758198e-23 -1.184737e-06) (0.000000e+00 0.000000e+00 0.000000e+00))
45           	((4.517492e-03 -2.858420e-02 3.232832e-21) (8.717361e-05 7.731026e-06 1.453813e-22) (0.000000e+00 0.000000e+00 0.000000e+00)) ((-1.467883e-22 1.567799e-21 7.402777e-03) (-3.052938e-24 3.649710e-23 -1.136056e-06) (0.000000e+00 0.000000e+00 0.000000e+00))
46           	((4.523505e-03 -2.842621e-02 3.255197e-21) (8.843569e-05 7.826229e-06 1.503557e-22) (0.000000e+00 0.000000e+00 0.000000e+00)) ((-1.475451e-22 1.576176e-21 7.315339e-03) (-3.147566e-24 3.767862e-23 -1.130211e-06) (0.000000e+00 0.000000e+00 0.000000e+00))
47           	((4.559648e-03 -2.828000e-02 3.274076e-21) (9.030058e-05 7.900109e-06 1.465504e-22) (0.000000e+00 0.000000e+00 0.000000e+00)) ((-1.480467e-22 1.581937e-21 7.240468e-03) (-3.070468e-24 3.672129e-23 -1.100141e-06) (0.000000e+00 0.000000e+00 0.000000e+00))
48           	((4.537549e-03 -2.837305e-02 3.288195e-21) (9.160294e-05 8.021566e-06 1.526111e-22) (0.000000e+00 0.000000e+00 0.000000e+00)) ((-1.489241e-22 1.591040e-21 7.251455e-03) (-3.193268e-24 3.820924e-23 -1.107912e-06) (0.000000e+00 0.000000e+00 0.000000e+00))
49           	((4.533063e-03 -2.852092e-02 3.340992e-21) (9.353766e-05 8.145863e-06 1.487933e-22) (0.000000e+00 0.000000e+00 0.000000e+00)) ((-1.502572e-22 1.606487e-21 7.297381e-03) (-3.107750e-24 3.715915e-23 -1.098342e-06) (0.000000e+00 0.000000e+00 0.000000e+00))
50           	((4.620329e-03 -2.757507e-02 3.274966e-21) (9.413832e-05 8.328922e-06 1.475241e-22) (0.000000e+00 0.000000e+00 0.000000e+00)) ((-1.487434e-22 1.588633e-21 6.898150e-03) (-3.093564e-24 3.705174e-23 -1.147937e-06) (0.000000e+00 0.000000e+00 0.000000e+00))
51           	((4.653999e-03 -2.722085e-02 3.353327e-21) (9.549065e-05 8.477287e-06 1.522586e-22) (0.000000e+00 0.000000e+00 0.000000e+00)) ((-1.502452e-22 1.607007e-21 6.745107e-03) (-3.164585e-24 3.791193e-23 -1.164946e-06) (0.000000e+00 0.000000e+00 0.000000e+00))
52           	((4.722520e-03 -2.645296e-02 3.390609e-21) (9.654119e-05 8.645111e-06 1.486462e-22) (0.000000e+00 0.000000e+00 0.000000e+00)) ((-1.506370e-22 1.612669e-21 6.428240e-03) (-3.094006e-24 3.708755e-23 -1.198860e-06) (0.000000e+00 0.000000e+00 0.000000e+00))
53           	((4.772357e-03 -2.604455e-02 3.405132e-21) (9.765954e-05 8.794444e-06 1.546473e-22) (0.000000e+00 0.000000e+00 0.000000e+00)) ((-1.510533e-22 1.617391e-21 6.245650e-03) (-3.222428e-24 3.860258e-23 -1.226648e-06) (0.000000e+00 0.000000e+00 0.000000e+00))
54           	((4.760532e-03 -2.625800e-02 3.353187e-21) (9.877681e-05 8.958522e-06 1.667880e-22) (0.000000e+00 0.000000e+00 0.000000e+00)) ((-1.509800e-22 1.614014e-21 6.296946e-03) (-3.487996e-24 4.173224e-23 -1.264075e-06) (0.000000e+00 0.000000e+00 0.000000e+00))
55           	((4.702033e-03 -2.653711e-02 3.362514e-21) (1.000681e-04 9.138678e-06 1.635332e-22) (0.000000e+00 0.000000e+00 0.000000e+00)) ((-1.518042e-22 1.622362e-21 6.395808e-03) (-3.413479e-24 4.084237e-23 -1.293803e-06) (0.000000e+00 0.000000e+00 0.000000e+00))
56           	((4.679753e-03 -2.653520e-02 3.375774e-21) (1.012895e-04 9.298136e-06 1.661526e-22) (0.000000e+00 0.000000e+00 0.000000e+00)) ((-1.523274e-22 1.628040e-21 6.387526e-03) (-3.464414e-24 4.147605e-23 -1.313674e-06) (0.000000e+00 0.000000e+00 0.000000e+00))
57           	((4.736149e-03 -2.590314e-02 3.395035e-21) (1.019788e-04 9.460206e-06 1.546073e-22) (0.000000e+00 0.000000e+00 0.000000e+00)) ((-1.525940e-22 1.631577e-21 6.124975e-03) (-3.231293e-24 3.871129e-23 -1.349303e-06) (0.000000e+00 0.000000e+00 0.000000e+00))
58           	((4.737650e-03 -2.587517e-02 3.406985e-21) (1.029801e-04 9.619196e-06 1.672706e-22) (0.000000e+00 0.000000e+00 0.000000e+00)) ((-1.533561e-22 1.639468e-21 6.094564e-03) (-3.491627e-24 4.179422e-23 -1.381480e-06) (0.000000e+00 0.000000e+00 0.000000e+00))
59           	((4.837536e-03 -2.463785e-02 3.436771e-21) (1.031170e-04 9.797801e-06 1.517286e-22) (0.000000e+00 0.000000e+00 0.000000e+00)) ((-1.533265e-22 1.640721e-21 5.598164e-03) (-3.163646e-24 3.795920e-23 -1.434597e-06) (0.000000e+00 0.000000e+00 0.000000e+00))
60           	((4.915089e-03 -2.370644e-02 3.477708e-21) (1.035948e-04 9.947051e-06 1.552574e-22) (0.000000e+00 0.000000e+00 0.000000e+00)) ((-1.537221e-22 1.646607e-21 5.222513e-03) (-3.229078e-24 3.873090e-23 -1.472088e-06) (0.000000e+00 0.000000e+00 0.000000e+00))
61           	((4.937436e-03 -2.360574e-02 3.417070e-21) (1.041830e-04 1.006047e-05 1.668342e-22) (0.000000e+00 0.000000e+00 0.000000e+00)) ((-1.533392e-22 1.639827e-21 5.153182e-03) (-3.497455e-24 4.182032e-23 -1.502005e-06) (0.000000e+00 0.000000e+00 0.000000e+00))
62           	((4.881888e-03 -2.388782e-02 3.447965e-21) (1.048851e-04 1.022472e-05 1.664564e-22) (0.000000e+00 0.000000e+00 0.000000e+00)) ((-1.547258e-22 1.654655e-21 5.256319e-03) (-3.475163e-24 4.152867e-23 -1.542201e-06) (0.000000e+00 0.000000e+00 0.000000e+00))
63           	((4.838661e-03 -2.363192e-02 3.471353e-21) (1.053710e-04 1.039872e-05 1.620792e-22) (0.000000e+00 0.000000e+00 0.000000e+00)) ((-1.552718e-22 1.661072e-21 5.166582e-03) (-3.377686e-24 4.040869e-23 -1.587596e-06) (0.000000e+00 0.000000e+00 0.000000e+00))
64           	((4.841007e-03 -2.350939e-02 3.462327e-21) (1.059639e-04 1.054560e-05 1.612775e-22) (0.000000e+00 0.000000e+00 0.000000e+00)) ((-1.554114e-22 1.661939e-21 5.109081e-03) (-3.375412e-24 4.033549e-23 -1.622106e-06) (0.000000e+00 0.000000e+00 0.000000e+00))
65           	((4.981045e-03 -2.177296e-02 3.503782e-21) (1.051581e-04 1.073260e-05 1.502617e-22) (0.000000e+00 0.000000e+00 0.000000e+00)) ((-1.551961e-22 1.662021e-21 4.424881e-03) (-3.130409e-24 3.760543e-23 -1.705089e-06) (0.000000e+00 0.000000e+00 0.000000e+00))
66           	((5.035971e-03 -2.133867e-02 3.451909e-21) (1.052402e-04 1.086519e-05 1.682495e-22) (0.000000e+00 0.000000e+00 0.000000e+00)) ((-1.547251e-22 1.654852e-21 4.228706e-03) (-3.531184e-24 4.227938e-23 -1.759195e-06) (0.000000e+00 0.000000e+00 0.000000e+00))
67           	((4.995097e-03 -2.154762e-02 3.498439e-21) (1.054451e-04 1.101964e-05 1.703479e-22) (0.000000e+00 0.000000e+00 0.000000e+00)) ((-1.564322e-22 1.673545e-21 4.305779e-03) (-3.563632e-24 4.265944e-23 -1.814281e-06) (0.000000e+00 0.000000e+00 0.000000e+00))
68           	((4.960964e-03 -2.110594e-02 3.495758e-21) (1.052710e-04 1.119762e-05 1.637192e-22) (0.000000e+00 0.000000e+00 0.000000e+00)) ((-1.563175e-22 1.672312e-21 4.153857e-03) (-3.426709e-24 4.109957e-23 -1.882195e-06) (0.000000e+00 0.000000e+00 0.000000e+00))
69           	((5.009402e-03 -2.025724e-02 3.499891e-21) (1.047604e-04 1.135958e-05 1.618110e-22) (0.000000e+00 0.000000e+00 0.000000e+00)) ((-1.561851e-22 1.671261e-21 3.820901e-03) (-3.392279e-24 4.075540e-23 -1.953939e-06) (0.000000e+00 0.000000e+00 0.000000e+00))
70           	((5.035450e-03 -1.969755e-02 3.542404e-21) (1.044015e-04 1.147934e-05 1.653840e-22) (0.000000e+00 0.000000e+00 0.000000e+00)) ((-1.570592e-22 1.681796e-21 3.603056e-03) (-3.463753e-24 4.163609e-23 -2.008901e-06) (0.000000e+00 0.000000e+00 0.000000e+00))
71           	((5.093436e-03 -1.881351e-02 3.563243e-21) (1.036674e-04 1.160599e-05 1.608865e-22) (0.000000e+00 0.000000e+00 0.000000e+00)) ((-1.572124e-22 1.684333e-21 3.259176e-03) (-3.377157e-24 4.064336e-23 -2.073370e-06) (0.000000e+00 0.000000e+00 0.000000e+00))
72           	((5.138429e-03 -1.807690e-02 3.569389e-21) (1.029404e-04 1.170035e-05 1.642164e-22) (0.000000e+00 0.000000e+00 0.000000e+00)) ((-1.572817e-22 1.685311e-21 2.973187e-03) (-3.450046e-24 4.153478e-23 -2.125299e-06) (0.000000e+00 0.000000e+00 0.000000e+00))
73           	((5.165340e-03 -1.743660e-02 3.568576e-21) (1.021416e-04 1.177161e-05 1.658761e-22) (0.000000e+00 0.000000e+00 0.000000e+00)) ((-1.572755e-22 1.685210e-21 2.730697e-03) (-3.486520e-24 4.200204e-23 -2.168397e-06) (0.000000e+00 0.000000e+00 0.000000e+00))
74           	((5.174423e-03 -1.689755e-02 3.562766e-21) (1.013487e-04 1.182608e-05 1.664219e-22) (0.000000e+00 0.000000e+00 0.000000e+00)) ((-1.572081e-22 1.684267e-21 2.532887e-03) (-3.501232e-24 4.221017e-23 -2.203569e-06) (0.000000e+00 0.000000e+00 0.000000e+00))
75           	((5.171631e-03 -1.642602e-02 3.555901e-21) (1.005345e-04 1.187251e-05 1.672270e-22) (0.000000e+00 0.000000e+00 0.000000e+00)) ((-1.571442e-22 1.683304e-21 2.364915e-03) (-3.520190e-24 4.246299e-23 -2.236493e-06) (0.000000e+00 0.000000e+00 0.000000e+00))
76           	((5.165357e-03 -1.597058e-02 3.547591e-21) (9.966974e-05 1.190552e-05 1.677522e-22) (0.000000e+00 0.000000e+00 0.000000e+00)) ((-1.570547e-22 1.682021e-21 2.204966e-03) (-3.533330e-24 4.263845e-23 -2.265496e-06) (0.000000e+00 0.000000e+00 0.000000e+00))
77           	((5.162602e-03 -1.548508e-02 3.535673e-21) (9.876455e-05 1.194930e-05 1.676483e-22) (0.000000e+00 0.000000e+00 0.000000e+00)) ((-1.568716e-22 1.679659e-21 2.034007e-03) (-3.530790e-24 4.262197e-23 -2.302399e-06) (0.000000e+00 0.000000e+00 0.000000e+00))
78           	((5.166910e-03 -1.494296e-02 3.517991e-21) (9.773876e-05 1.199473e-05 1.671155e-22) (0.000000e+00 0.000000e+00 0.000000e+00)) ((-1.565300e-22 1.675486e-21 1.841468e-03) (-3.520936e-24 4.249166e-23 -2.344592e-06) (0.000000e+00 0.000000e+00 0.000000e+00))
79           	((5.177708e-03 -1.434511e-02 3.493646e-21) (9.663311e-05 1.202401e-05 1.663175e-22) (0.000000e+00 0.000000e+00 0.000000e+00)) ((-1.560088e-22 1.669256e-21 1.627852e-03) (-3.501905e-24 4.225721e-23 -2.382128e-06) (0.000000e+00 0.000000e+00 0.000000e+00))
80           	((5.192741e-03 -1.370805e-02 3.462755e-21) (9.547945e-05 1.204557e-05 1.654744e-22) (0.000000e+00 0.000000e+00 0.000000e+00)) ((-1.553133e-22 1.661026e-21 1.400068e-03) (-3.484276e-24 4.203238e-23 -2.418924e-06) (0.000000e+00 0.000000e+00 0.000000e+00))
81           	((5.209187e-03 -1.305408e-02 3.424759e-21) (9.427693e-05 1.205395e-05 1.649836e-22) (0.000000e+00 0.000000e+00 0.000000e+00)) ((-1.544401e-22 1.650732e-21 1.167338e-03) (-3.473157e-24 4.187885e-23 -2.452643e-06) (0.000000e+00 0.000000e+00 0.000000e+00))
82           	((5.224223e-03 -1.240215e-02 3.379965e-21) (9.304074e-05 1.205562e-05 1.641049e-22) (0.000000e+00 0.000000e+00 0.000000e+00)) ((-1.534006e-22 1.638501e-21 9.375241e-04) (-3.453674e-24 4.163799e-23 -2.486156e-06) (0.000000e+00 0.000000e+00 0.000000e+00))
83           	((5.236205e-03 -1.176562e-02 3.328116e-21) (9.177880e-05 1.204857e-05 1.632901e-22) (0.000000e+00 0.000000e+00 0.000000e+00)) ((-1.521943e-22 1.624313e-21 7.160457e-04) (-3.433423e-24 4.139193e-23 -2.518106e-06) (0.000000e+00 0.000000e+00 0.000000e+00))
84           	((5.244364e-03 -1.115110e-02 3.268041e-21) (9.050131e-05 1.203216e-05 1.630066e-22) (0.000000e+00 0.000000e+00 0.000000e+00)) ((-1.507918e-22 1.607829e-21 5.055905e-04) (-3.427419e-24 4.129767e-23 -2.548160e-06) (0.000000e+00 0.000000e+00 0.000000e+00))
85           	((5.248637e-03 -1.056006e-02 3.198375e-21) (8.922501e-05 1.200196e-05 1.625094e-22) (0.000000e+00 0.000000e+00 0.000000e+00)) ((-1.491619e-22 1.588680e-21 3.065852e-04) (-3.415338e-24 4.114443e-23 -2.573862e-06) (0.000000e+00 0.000000e+00 0.000000e+00))
86           	((5.242315e-03 -1.002716e-02 3.116525e-21) (8.800354e-05 1.196346e-05 1.619480e-22) (0.000000e+00 0.000000e+00 0.000000e+00)) ((-1.472514e-22 1.566224e-21 1.341607e-04) (-3.400565e-24 4.096262e-23 -2.596935e-06) (0.000000e+00 0.000000e+00 0.000000e+00))
87           	((5.240161e-03 -9.479823e-03 3.023777e-21) (8.671602e-05 1.191212e-05 1.611896e-22) (0.000000e+00 0.000000e+00 0.000000e+00)) ((-1.450759e-22 1.540678e-21 -4.405132e-05) (-3.381435e-24 4.072533e-23 -2.617827e-06) (0.000000e+00 0.000000e+00 0.000000e+00))
88           	((5.242250e-03 -8.904029e-03 2.913963e-21) (8.541455e-05 1.182611e-05 1.603842e-22) (0.000000e+00 0.000000e+00 0.000000e+00)) ((-1.424762e-22 1.510201e-21 -2.332033e-04) (-3.360935e-24 4.048696e-23 -2.624842e-06) (0.000000e+00 0.000000e+00 0.000000e+00))
89           	((5.253464e-03 -8.276881e-03 2.785147e-21) (8.405589e-05 1.169167e-05 1.600424e-22) (0.000000e+00 0.000000e+00 0.000000e+00)) ((-1.393953e-22 1.474153e-21 -4.437096e-04) (-3.351813e-24 4.038535e-23 -2.612433e-06) (0.000000e+00 0.000000e+00 0.000000e+00))
90           	((5.254339e-03 -7.672088e-03 2.614228e-21) (8.261871e-05 1.151456e-05 1.569493e-22) (0.000000e+00 0.000000e+00 0.000000e+00)) ((-1.351931e-22 1.425232e-21 -6.396707e-04) (-3.286799e-24 3.958803e-23 -2.582705e-06) (0.000000e+00 0.000000e+00 0.000000e+00))
91           	((5.251560e-03 -7.138096e-03 2.440682e-21) (8.131581e-05 1.132939e-05 1.591188e-22) (0.000000e+00 0.000000e+00 0.000000e+00)) ((-1.311017e-22 1.377231e-21 -8.107748e-04) (-3.322256e-24 4.003357e-23 -2.552574e-06) (0.000000e+00 0.000000e+00 0.000000e+00))
92           	((5.243298e-03 -6.639441e-03 2.237769e-21) (8.017109e-05 1.113210e-05 1.582859e-22) (0.000000e+00 0.000000e+00 0.000000e+00)) ((-1.262929e-22 1.320870e-21 -9.669645e-04) (-3.302138e-24 3.978747e-23 -2.517206e-06) (0.000000e+00 0.000000e+00 0.000000e+00))
93           	((5.224887e-03 -6.178346e-03 1.994662e-21) (7.896022e-05 1.092447e-05 1.544550e-22) (0.000000e+00 0.000000e+00 0.000000e+00)) ((-1.203419e-22 1.251534e-21 -1.104814e-03) (-3.225712e-24 3.885732e-23 -2.479919e-06) (0.000000e+00 0.000000e+00 0.000000e+00))
94           	((5.206593e-03 -5.761162e-03 1.721900e-21) (7.785123e-05 1.069717e-05 1.578946e-22) (0.000000e+00 0.000000e+00 0.000000e+00)) ((-1.138770e-22 1.175764e-21 -1.229014e-03) (-3.291062e-24 3.965292e-23 -2.434672e-06) (0.000000e+00 0.000000e+00 0.000000e+00))
95           	((5.187641e-03 -5.345656e-03 1.415297e-21) (7.679363e-05 1.043085e-05 1.576787e-22) (0.000000e+00 0.000000e+00 0.000000e+00)) ((-1.065500e-22 1.090020e-21 -1.353497e-03) (-3.288807e-24 3.962681e-23 -2.373025e-06) (0.000000e+00 0.000000e+00 0.000000e+00))
96           	((5.167776e-03 -4.943055e-03 1.075833e-21) (7.576615e-05 1.015616e-05 1.573822e-22) (0.000000e+00 0.000000e+00 0.000000e+00)) ((-9.836867e-23 9.944280e-22 -1.474262e-03) (-3.289269e-24 3.961685e-23 -2.308949e-06) (0.000000e+00 0.000000e+00 0.000000e+00))
97           	((5.145704e-03 -4.570977e-03 7.063320e-22) (7.473473e-05 9.873594e-06 1.579209e-22) (0.000000e+00 0.000000e+00 0.000000e+00)) ((-8.941975e-23 8.899604e-22 -1.584880e-03) (-3.308783e-24 3.984042e-23 -2.242761e-06) (0.000000e+00 0.000000e+00 0.000000e+00))
98           	((5.120310e-03 -4.243306e-03 3.148590e-22) (7.359830e-05 9.607698e-06 1.597343e-22) (0.000000e+00 0.000000e+00 0.000000e+00)) ((-7.989353e-23 7.788496e-22 -1.679993e-03) (-3.357526e-24 4.040684e-23 -2.187055e-06) (0.000000e+00 0.000000e+00 0.000000e+00))
99           	((5.090878e-03 -3.975348e-03 -8.659991e-23) (7.235703e-05 9.349060e-06 1.606368e-22) (0.000000e+00 0.000000e+00 0.000000e+00)) ((-7.007390e-23 6.644234e-22 -1.754030e-03) (-3.391661e-24 4.077874e-23 -2.137040e-06) (0.000000e+00 0.000000e+00 0.000000e+00))
100          	((5.057286e-03 -3.775229e-03 -4.817767e-22) (7.114756e-05 9.084477e-06 1.604669e-22) (0.000000e+00 0.000000e+00 0.000000e+00)) ((-6.034384e-23 5.511760e-22 -1.804536e-03) (-3.405144e-24 4.090244e-23 -2.083189e-06) (0.000000e+00 0.000000e+00 0.000000e+00))
101          	((5.019588e-03 -3.648569e-03 -8.519559e-22) (7.006195e-05 8.828516e-06 1.593086e-22) (0.000000e+00 0.000000e+00 0.000000e+00)) ((-5.112958e-23 4.441407e-22 -1.829499e-03) (-3.399004e-24 4.078593e-23 -2.028549e-06) (0.000000e+00 0.000000e+00 0.000000e+00))
102          	((4.977101e-03 -3.606566e-03 -1.175699e-21) (6.912635e-05 8.591009e-06 1.565431e-22) (0.000000e+00 0.000000e+00 0.000000e+00)) ((-4.292235e-23 3.491114e-22 -1.824635e-03) (-3.356671e-24 4.023915e-23 -1.975700e-06) (0.000000e+00 0.000000e+00 0.000000e+00))
103          	((4.930620e-03 -3.655992e-03 -1.432124e-21) (6.831609e-05 8.384325e-06 1.523073e-22) (0.000000e+00 0.000000e+00 0.000000e+00)) ((-3.621656e-23 2.718841e-22 -1.787787e-03) (-3.279756e-24 3.929509e-23 -1.929717e-06) (0.000000e+00 0.000000e+00 0.000000e+00))
104          	((4.881411e-03 -3.794668e-03 -1.602867e-21) (6.763469e-05 8.212434e-06 1.461366e-22) (0.000000e+00 0.000000e+00 0.000000e+00)) ((-3.144779e-23 2.175629e-22 -1.720196e-03) (-3.155350e-24 3.779527e-23 -1.891225e-06) (0.000000e+00 0.000000e+00 0.000000e+00))
105          	((4.827864e-03 -4.040898e-03 -1.670682e-21) (6.713526e-05 8.077448e-06 1.392610e-22) (0.000000e+00 0.000000e+00 0.000000e+00)) ((-2.902251e-23 1.909169e-22 -1.614252e-03) (-3.008021e-24 3.603894e-23 -1.859024e-06) (0.000000e+00 0.000000e+00 0.000000e+00))
106          	((4.780427e-03 -4.329221e-03 -1.636066e-21) (6.670229e-05 7.982504e-06 1.325692e-22) (0.000000e+00 0.000000e+00 0.000000e+00)) ((-2.896818e-23 1.921827e-22 -1.498165e-03) (-2.858664e-24 3.427963e-23 -1.836772e-06) (0.000000e+00 0.000000e+00 0.000000e+00))
107          	((4.736686e-03 -4.699620e-03 -1.492107e-21) (6.634763e-05 7.932869e-06 1.272707e-22) (0.000000e+00 0.000000e+00 0.000000e+00)) ((-3.150012e-23 2.237717e-22 -1.356878e-03) (-2.733090e-24 3.281362e-23 -1.827136e-06) (0.000000e+00 0.000000e+00 0.000000e+00))
108          	((4.656757e-03 -5.573208e-03 -1.215599e-21) (6.639189e-05 7.917940e-06 1.295112e-22) (0.000000e+00 0.000000e+00 0.000000e+00)) ((-3.747724e-23 2.950786e-22 -1.025440e-03) (-2.759367e-24 3.315171e-23 -1.819821e-06) (0.000000e+00 0.000000e+00 0.000000e+00))
109          	((4.599812e-03 -6.237753e-03 -9.136220e-22) (6.637860e-05 7.964316e-06 1.268020e-22) (0.000000e+00 0.000000e+00 0.000000e+00)) ((-4.397347e-23 3.726537e-22 -7.766289e-04) (-2.694119e-24 3.240421e-23 -1.830616e-06) (0.000000e+00 0.000000e+00 0.000000e+00))
110          	((4.547634e-03 -6.886896e-03 -4.840300e-22) (6.633556e-05 8.037922e-06 1.291090e-22) (0.000000e+00 0.000000e+00 0.000000e+00)) ((-5.328826e-23 4.837111e-22 -5.363810e-04) (-2.714963e-24 3.272706e-23 -1.850275e-06) (0.000000e+00 0.000000e+00 0.000000e+00))
111          	((4.499769e-03 -7.622586e-03 -1.937583e-23) (6.642935e-05 8.144317e-06 1.361648e-22) (0.000000e+00 0.000000e+00 0.000000e+00)) ((-6.376952e-23 6.077103e-22 -2.706706e-04) (-2.853762e-24 3.441129e-23 -1.879820e-06) (0.000000e+00 0.000000e+00 0.000000e+00))