/*--------------------------------*- C++ -*----------------------------------*\
| =========                 |                                                 |
| \\      /  F ield         | OpenFOAM: The Open Source CFD Toolbox           |
|  \\    /   O peration     | Version:  5.x                                   |
|   \\  /    A nd           | Web:      www.OpenFOAM.org                      |
|    \\/     M anipulation  |                                                 |
\*---------------------------------------------------------------------------*/
FoamFile
{
    version     2.0;
    format      ascii;
    class       volScalarField;
    location    "239";
    object      k;
}
// * * * * * * * * * * * * * * * * * * * * * * * * * * * * * * * * * * * * * //

dimensions      [0 2 -2 0 0 0 0];

internalField   nonuniform List<scalar> 
5760
(
0.37233
0.36808
0.366266
0.362973
0.361358
0.358343
0.357171
0.354906
0.354329
0.353238
0.353388
0.353544
0.354775
0.355592
0.358
0.359181
0.364131
0.361549
0.389086
0.416066
0.425771
0.427561
0.429922
0.433364
0.441968
0.449167
0.465414
0.47589
0.49832
0.511208
0.538163
0.552636
0.582479
0.597868
0.629728
0.643022
0.377133
0.382376
0.393376
0.399477
0.403499
0.405024
0.406936
0.407738
0.409759
0.410859
0.413661
0.415263
0.418788
0.42135
0.425038
0.428939
0.432532
0.437509
0.374658
0.374572
0.375547
0.376808
0.378613
0.37981
0.381114
0.381934
0.382879
0.383542
0.384303
0.384994
0.38564
0.386468
0.387051
0.38802
0.388672
0.389858
0.374703
0.374129
0.373683
0.373335
0.373172
0.373141
0.373166
0.373217
0.373288
0.373385
0.373453
0.373569
0.373636
0.373767
0.373843
0.373982
0.374104
0.374339
0.374702
0.37414
0.373583
0.37309
0.372594
0.372177
0.371754
0.371418
0.371058
0.370792
0.370482
0.370272
0.37
0.369838
0.369593
0.369475
0.369249
0.369173
0.374701
0.374139
0.37358
0.373069
0.372556
0.372091
0.371623
0.371205
0.370781
0.370407
0.370023
0.369689
0.369342
0.369043
0.36873
0.368463
0.368179
0.367939
0.374704
0.374135
0.373582
0.373062
0.372556
0.372081
0.371618
0.371182
0.370759
0.37036
0.369973
0.369608
0.369253
0.368919
0.368595
0.36829
0.367994
0.367714
0.374706
0.374133
0.373583
0.373059
0.372556
0.372077
0.371617
0.371177
0.370756
0.370353
0.369967
0.369598
0.369244
0.368905
0.368581
0.368271
0.367973
0.367688
0.374706
0.374132
0.373583
0.373058
0.372555
0.372075
0.371615
0.371174
0.370753
0.370349
0.369963
0.369593
0.369239
0.3689
0.368575
0.368264
0.367966
0.367679
0.374706
0.374132
0.373583
0.373057
0.372554
0.372073
0.371613
0.371172
0.37075
0.370346
0.36996
0.369589
0.369235
0.368895
0.36857
0.368257
0.367959
0.367672
0.374706
0.374132
0.373582
0.373056
0.372554
0.372072
0.371611
0.37117
0.370748
0.370343
0.369957
0.369586
0.369231
0.368891
0.368566
0.368253
0.367955
0.367668
0.374706
0.374132
0.373583
0.373056
0.372554
0.372072
0.371611
0.37117
0.370749
0.370344
0.369958
0.369587
0.369234
0.368893
0.368569
0.368256
0.367958
0.36767
0.374707
0.374131
0.373583
0.373056
0.372554
0.372071
0.371611
0.371168
0.370748
0.370342
0.369958
0.369587
0.369236
0.368897
0.368576
0.368265
0.367972
0.367687
0.374708
0.374131
0.373585
0.373056
0.372557
0.372073
0.371619
0.371178
0.370765
0.370362
0.369985
0.369615
0.369269
0.368929
0.368612
0.368298
0.368008
0.367717
0.374708
0.374132
0.373591
0.373061
0.372584
0.372131
0.371727
0.371333
0.370977
0.370621
0.370297
0.369969
0.369672
0.369366
0.369092
0.368807
0.368557
0.368292
0.374717
0.374125
0.373703
0.373426
0.373275
0.373112
0.372969
0.372784
0.372612
0.372405
0.372221
0.372011
0.371835
0.371634
0.37148
0.371294
0.371167
0.370997
0.374802
0.375317
0.376786
0.378248
0.379511
0.380217
0.380945
0.381372
0.382
0.382492
0.383235
0.383924
0.384848
0.385739
0.38683
0.387871
0.389093
0.390223
0.378889
0.385133
0.391112
0.394491
0.399702
0.403794
0.41189
0.417799
0.429364
0.437085
0.452102
0.461538
0.479743
0.490718
0.511791
0.524102
0.54839
0.561179
0.372669
0.429145
0.547438
0.677675
0.83954
1.00961
1.20599
1.41281
1.64046
1.87781
2.13026
2.38991
2.65899
2.93196
3.20912
3.48682
3.76418
4.03908
0.109648
0.121557
0.141337
0.160285
0.166812
0.173828
0.185105
0.198791
0.217306
0.242456
0.273456
0.308761
0.349077
0.400853
0.467201
0.54984
0.649187
0.76411
0.892743
1.03308
1.18344
1.34165
1.5071
1.6789
1.85672
2.04037
2.2299
2.42545
2.62724
2.83553
3.05056
3.27259
3.50181
3.73838
3.98236
4.23379
4.49258
4.7586
5.03161
5.31131
5.5973
5.88911
6.18618
6.48789
6.79353
7.10236
7.41352
7.72615
8.03928
8.35192
8.66297
8.97126
9.2755
9.5742
9.86569
10.1482
10.4206
10.6851
10.9401
11.1845
11.4176
11.6386
11.8465
12.0404
12.2197
12.3836
12.5314
12.6625
12.7766
12.8732
12.9522
13.0135
13.0574
13.084
13.0915
13.0783
13.049
13.0091
12.9508
12.8744
12.7827
12.6761
12.5556
12.422
12.2762
12.119
11.9516
11.7748
11.5899
11.3978
11.1999
10.9973
10.7915
10.5837
10.3807
10.2505
10.1555
10.0438
9.94858
9.54499
0.131548
0.180374
0.239679
0.294557
0.355278
0.408272
0.458467
0.514202
0.582728
0.666565
0.764178
0.873488
0.993768
1.12685
1.27567
1.4426
1.62839
1.83255
2.05421
2.29255
2.54694
2.81624
3.09978
3.397
3.70749
4.03101
4.36752
4.7171
5.08
5.45654
5.84711
6.25211
6.67193
7.10692
7.55737
8.02345
8.50524
9.0027
9.51564
10.0437
10.5865
11.1433
11.7134
12.2959
12.8896
13.4933
14.1056
14.7251
15.3501
15.9787
16.6092
17.2394
17.867
18.4897
19.1046
19.7083
20.2964
20.8635
21.415
21.9505
22.468
22.9656
23.4413
23.8935
24.3202
24.7199
25.091
25.4322
25.7422
26.0201
26.2649
26.4765
26.6546
26.7994
26.9105
26.9772
27.0105
27.0231
27.0008
26.9412
26.8495
26.7268
26.5746
26.3945
26.1877
25.9561
25.7013
25.4253
25.1303
24.8184
24.4919
24.1533
23.8052
23.4503
23.0923
22.7475
22.4096
22.0656
21.721
21.0392
0.18267
0.26783
0.361712
0.443759
0.522098
0.600288
0.68496
0.782627
0.897483
1.02998
1.17805
1.33955
1.51421
1.70315
1.90871
2.1333
2.37882
2.64633
2.9361
3.24769
3.58023
3.93313
4.30468
4.69408
5.1005
5.52344
5.96269
6.41829
6.89044
7.37948
7.88582
8.40984
8.95192
9.51237
10.0914
10.6892
11.3058
11.941
12.5945
13.2658
13.9545
14.6596
15.3802
16.1151
16.8631
17.6227
18.3921
19.1696
19.9531
20.7405
21.5295
22.3176
23.1023
23.8807
24.6502
25.4079
26.151
26.8776
27.5863
28.2744
28.9394
29.5786
30.1897
30.7702
31.3179
31.8306
32.3063
32.7431
33.1397
33.4945
33.8066
34.0755
34.3007
34.4825
34.6203
34.7052
34.7448
34.7549
34.7187
34.6372
34.5139
34.3506
34.149
33.9111
33.6389
33.3344
33.0001
32.6384
32.252
31.8437
31.4165
30.9735
30.5181
30.0538
29.5847
29.1229
28.6655
28.2113
27.7528
27.046
0.223205
0.370482
0.499153
0.600784
0.694651
0.791977
0.900897
1.027
1.1726
1.33661
1.51616
1.70922
1.91607
2.1391
2.38167
2.64691
2.937
3.25289
3.59448
3.9609
4.35087
4.76278
5.19567
5.64855
6.12068
6.61165
7.12133
7.64985
8.1975
8.76469
9.35187
9.95954
10.5881
11.238
11.9094
12.6027
13.3177
14.0544
14.8126
15.5918
16.3912
17.2101
18.0475
18.9019
19.772
20.6561
21.5521
22.458
23.3715
24.29
25.2109
26.1314
27.0486
27.9594
28.8608
29.7499
30.6238
31.4796
32.3143
33.1247
33.9076
34.6599
35.3787
36.0611
36.7043
37.3058
37.8633
38.3745
38.8377
39.2511
39.6137
39.9246
40.1834
40.3903
40.5448
40.6383
40.6783
40.6809
40.6283
40.5233
40.3689
40.1671
39.9201
39.6303
39.2999
38.9316
38.5281
38.0925
37.6277
37.1372
36.6244
36.0931
35.5471
34.9907
34.4286
33.8712
33.3182
32.7758
32.2338
31.51
0.240233
0.509686
0.651315
0.762743
0.868605
0.981118
1.10793
1.25329
1.41807
1.60063
1.79872
2.0116
2.24084
2.48957
2.7613
3.05879
3.38362
3.73616
4.11591
4.52182
4.95264
5.40721
5.88457
6.38391
6.90472
7.44675
8.01003
8.59476
9.20131
9.83016
10.4819
11.157
11.8562
12.5798
13.3284
14.1021
14.9011
15.7253
16.5745
17.4484
18.3462
19.2671
20.2099
21.1732
22.1554
23.1545
24.1683
25.1945
26.2302
27.2728
28.319
29.3657
30.4095
31.447
32.4747
33.489
34.4865
35.4634
36.4161
37.3407
38.2337
39.0915
39.9105
40.6874
41.4192
42.1027
42.7354
43.3147
43.8385
44.305
44.7127
45.0606
45.3483
45.5762
45.7434
45.8419
45.8808
45.8727
45.8023
45.6725
45.4863
45.246
44.9541
44.6133
44.2265
43.7965
43.3267
42.8202
42.2809
41.7123
41.1185
40.5037
39.8722
39.2292
38.5797
37.9335
37.2928
36.6685
36.0522
35.2985
0.306456
0.632001
0.793675
0.918306
1.036
1.16052
1.29954
1.45671
1.63258
1.82602
2.03599
2.26304
2.50942
2.77829
3.07262
3.39447
3.74479
4.12365
4.53047
4.96438
5.42446
5.90987
6.41991
6.95405
7.51202
8.09375
8.69942
9.32936
9.98407
10.6642
11.3703
12.1032
12.8636
13.6521
14.4692
15.3152
16.1905
17.0951
18.0289
18.9914
19.9821
21.0001
22.044
23.1124
24.2035
25.315
26.4444
27.5891
28.7459
29.9114
31.0823
32.2547
33.4247
34.5885
35.7418
36.8804
38.0002
39.0967
40.1657
41.2029
42.2042
43.1655
44.0827
44.9522
45.7703
46.5336
47.2393
47.8843
48.4664
48.9834
49.4338
49.8163
50.1306
50.3768
50.5542
50.6558
50.6922
50.6713
50.5813
50.4252
50.2058
49.9259
49.5883
49.1961
48.7524
48.2608
47.7248
47.1483
46.5351
45.8895
45.2159
44.5191
43.8039
43.0759
42.3409
41.6084
40.8828
40.1785
39.4897
38.6931
0.348063
0.735325
0.921892
1.06162
1.19042
1.32412
1.47098
1.63489
1.81692
2.0169
2.23497
2.47243
2.73166
3.01539
3.32591
3.6647
4.03236
4.42891
4.85396
5.30696
5.78735
6.29467
6.82855
7.38876
7.97527
8.58824
9.22803
9.89515
10.5903
11.3141
12.0675
12.8514
13.6666
14.5139
15.394
16.3073
17.2544
18.2353
19.2501
20.2984
21.3795
22.4926
23.6363
24.8089
26.0083
27.2321
28.4774
29.7411
31.0196
32.3091
33.6056
34.9048
36.2021
37.4929
38.7725
40.0359
41.2782
42.4943
43.6796
44.8291
45.9383
47.0024
48.0171
48.978
49.8813
50.7232
51.5003
52.2095
52.8482
53.414
53.9052
54.3204
54.6591
54.9215
55.1071
55.21
55.242
55.2067
55.0954
54.9113
54.6573
54.3365
53.9521
53.5076
53.0065
52.4528
51.8504
51.2036
50.5168
49.7945
49.0417
48.2635
47.4652
46.653
45.8333
45.0157
44.2065
43.4225
42.6602
41.8122
0.384752
0.823643
1.03324
1.18752
1.32632
1.46713
1.61906
1.78669
1.97201
2.1759
2.39933
2.64392
2.91187
3.20537
3.52618
3.8754
4.25357
4.66079
5.09698
5.56196
6.05558
6.57775
7.12844
7.70774
8.31591
8.95337
9.6207
10.3186
11.048
11.8098
12.6051
13.4349
14.3002
15.2021
16.1414
17.1189
18.1349
19.19
20.284
21.4167
22.5875
23.7954
25.0388
26.3159
27.6243
28.9613
30.3235
31.7074
33.1089
34.5236
35.9469
37.3738
38.7992
40.2177
41.6239
43.0121
44.3767
45.7122
47.0131
48.2741
49.49
50.6557
51.7662
52.817
53.8036
54.7219
55.5683
56.3394
57.0323
57.6446
58.1742
58.6198
58.9806
59.2568
59.4481
59.5506
59.5758
59.5248
59.3906
59.1768
58.8868
58.524
58.0919
57.5943
57.0354
56.4193
55.7505
55.0337
54.2736
53.4753
52.6439
51.7852
50.9048
50.0094
49.106
48.2044
47.3124
46.4487
45.6113
44.7049
0.417696
0.896301
1.12511
1.29221
1.43978
1.58637
1.74183
1.91157
2.09853
2.30446
2.53088
2.77951
3.05226
3.35088
3.67681
4.03104
4.4141
4.82634
5.26797
5.73922
6.24033
6.77158
7.33333
7.92606
8.55033
9.20685
9.89645
10.6201
11.379
12.1743
13.0074
13.8794
14.7918
15.7456
16.7419
17.7817
18.8655
19.9937
21.1666
22.3838
23.6446
24.9478
26.2919
27.6745
29.0931
30.5444
32.0246
33.5297
35.0549
36.5953
38.1457
39.7003
41.2533
42.7986
44.3302
45.8418
47.3269
48.7796
50.1937
51.5634
52.8831
54.1471
55.3502
56.4872
57.5534
58.5445
59.4565
60.2858
61.0293
61.6844
62.2491
62.7217
63.1015
63.3883
63.5825
63.6825
63.6982
63.6302
63.4712
63.2263
62.8992
62.4935
62.0132
61.4624
60.8457
60.1676
59.4331
58.6472
57.8149
56.9419
56.0336
55.0959
54.1351
53.1583
52.1727
51.189
50.2154
49.2727
48.3588
47.3902
0.447205
0.952667
1.19627
1.37384
1.52885
1.68029
1.83848
2.00947
2.19698
2.40341
2.63065
2.88047
3.15459
3.45451
3.78142
4.13624
4.51967
4.93231
5.37474
5.84755
6.35142
6.88709
7.45533
8.057
8.693
9.36438
10.0723
10.8181
11.6031
12.429
13.2973
14.2096
15.1674
16.1721
17.2249
18.3268
19.4786
20.6808
21.9335
23.2364
24.5886
25.9887
27.4348
28.9243
30.4541
32.0206
33.6193
35.2456
36.8942
38.5594
40.2353
41.9155
43.5935
45.2625
46.9159
48.5465
50.1477
51.7125
53.2346
54.7075
56.1253
57.4817
58.7712
59.9884
61.1282
62.186
63.1577
64.0395
64.8281
65.5208
66.1156
66.6107
67.0053
67.299
67.4925
67.5869
67.5902
67.5041
67.3184
67.0411
66.6761
66.2272
65.6987
65.0953
64.4216
63.6828
62.8841
62.031
61.1289
60.1835
59.2008
58.187
57.1487
56.0933
55.0283
53.965
52.912
51.8918
50.9013
49.8693
0.470126
0.992165
1.24659
1.43221
1.59327
1.74875
1.90909
2.08074
2.26792
2.47355
2.69986
2.94861
3.22132
3.51926
3.84356
4.19526
4.5753
4.98461
5.42413
5.89478
6.39782
6.93445
7.50591
8.1135
8.75845
9.44219
10.1662
10.9321
11.7418
12.5973
13.5003
14.453
15.4568
16.5135
17.6243
18.7904
20.0124
21.291
22.6261
24.0172
25.4633
26.9625
28.5125
30.1102
31.752
33.4336
35.1501
36.896
38.6654
40.4521
42.2492
44.05
45.8471
47.6332
49.401
51.143
52.8518
54.5202
56.1412
57.7082
59.2145
60.654
62.0205
63.3085
64.5127
65.6284
66.6512
67.5773
68.4033
69.1265
69.7447
70.2563
70.6603
70.9563
71.1452
71.2293
71.2179
71.1122
70.8979
70.5873
70.184
69.6922
69.1165
68.4616
67.7329
66.9358
66.0757
65.1585
64.19
63.1761
62.1231
61.0374
59.9257
58.7959
57.6557
56.5167
55.3876
54.2927
53.2267
52.1325
0.486192
1.01574
1.27711
1.46838
1.634
1.7926
1.95447
2.12623
2.31245
2.51634
2.7402
2.98582
3.25464
3.54781
3.86656
4.21219
4.58598
4.98926
5.42356
5.89045
6.39095
6.92666
7.49934
8.11087
8.76362
9.45957
10.2
10.9864
11.8217
12.7083
13.6486
14.6446
15.6982
16.8111
17.9844
19.2193
20.5164
21.8762
23.2983
24.7818
26.3252
27.9263
29.582
31.2887
33.0421
34.8371
36.6682
38.5293
40.4138
42.3147
44.2249
46.1367
48.0425
49.9344
51.8046
53.6452
55.4485
57.2069
58.9131
60.5602
62.1413
63.6501
65.0802
66.4259
67.6819
68.8433
69.9057
70.8652
71.7185
72.4629
73.0961
73.6167
74.0234
74.316
74.4954
74.5646
74.5367
74.4085
74.1644
73.82
73.3788
72.8452
72.2239
71.5202
70.7395
69.8876
68.9704
67.9938
66.9639
65.8869
64.7691
63.6173
62.4382
61.2398
60.03
58.8208
57.6204
56.455
55.3163
54.1634
0.495431
1.02445
1.28933
1.48401
1.65264
1.81337
1.97617
2.14755
2.33209
2.53309
2.75299
2.99375
3.25704
3.54476
3.85792
4.19752
4.56502
4.96206
5.39033
5.85144
6.34799
6.88239
7.45698
8.07419
8.73621
9.4452
10.2037
11.0141
11.8798
12.8035
13.7876
14.8346
15.9461
17.1237
18.3681
19.6804
21.0608
22.5093
24.0251
25.6067
27.2517
28.9573
30.7195
32.5341
34.3959
36.2991
38.2377
40.2047
42.1933
44.1958
46.2047
48.212
50.2097
52.1897
54.1438
56.064
57.9425
59.7714
61.5433
63.2512
64.8882
66.4477
67.9234
69.3094
70.6006
71.7921
72.8794
73.8587
74.7267
75.4808
76.1188
76.6392
77.0409
77.3238
77.4882
77.5376
77.4917
77.3378
77.0634
76.6854
76.2075
75.6341
74.9703
74.2216
73.3935
72.4922
71.5235
70.4939
69.4094
68.2765
67.1014
65.891
64.6522
63.3928
62.121
60.8486
59.5835
58.3535
57.1464
55.9403
0.498662
1.02137
1.28641
1.48199
1.65172
1.8132
1.97606
2.14665
2.3295
2.5279
2.74428
2.9806
3.23845
3.51905
3.82352
4.15399
4.51251
4.90132
5.32287
5.78007
6.27581
6.81308
7.39461
8.02333
8.7025
9.43465
10.2213
11.0669
11.9745
12.9475
13.989
15.1013
16.2856
17.5427
18.8726
20.2756
21.7515
23.2992
24.9171
26.6026
28.3525
30.1629
32.029
33.9457
35.9071
37.9069
39.9384
41.9945
44.0677
46.1506
48.2353
50.3138
52.3781
54.42
56.4314
58.4044
60.3311
62.204
64.0154
65.7585
67.4265
69.0128
70.5112
71.9158
73.2217
74.424
75.5184
76.5011
77.3688
78.1192
78.7503
79.2603
79.6486
79.9148
80.0581
80.0838
80.0183
79.8359
79.5315
79.1213
78.6091
77.9996
77.2979
76.5095
75.6405
74.6967
73.6845
72.6102
71.48
70.3003
69.0775
67.8183
66.5294
65.2188
63.8942
62.5677
61.2462
59.9594
58.6903
57.4385
0.497552
1.0102
1.27351
1.46864
1.63844
1.79973
1.96164
2.13023
2.30987
2.50379
2.71418
2.94328
3.19287
3.46468
3.76115
4.08444
4.43717
4.8224
5.24322
5.70322
6.20632
6.75694
7.35811
8.01296
8.72289
9.49253
10.328
11.2335
12.2111
13.2632
14.3916
15.5973
16.8819
18.2451
19.6848
21.2003
22.7898
24.4511
26.181
27.9757
29.831
31.7417
33.7024
35.7073
37.7502
39.8245
41.9234
44.0399
46.1668
48.2969
50.4227
52.5365
54.6307
56.6975
58.7291
60.7182
62.6571
64.5384
66.3549
68.1001
69.7673
71.3499
72.842
74.238
75.533
76.7225
77.802
78.7681
79.6175
80.348
80.9578
81.4452
81.8099
82.051
82.1656
82.1642
82.0759
81.8616
81.5274
81.0864
80.5427
79.9008
79.1661
78.3443
77.4411
76.4629
75.4156
74.3058
73.1396
71.9233
70.6632
69.3657
68.0374
66.686
65.319
63.9482
62.5795
61.2445
59.9203
58.6313
0.493269
0.989274
1.24799
1.44075
1.60897
1.7685
1.9279
2.093
2.26814
2.45672
2.66177
2.88548
3.13002
3.39769
3.69146
4.01433
4.36995
4.76328
5.1983
5.67927
6.20997
6.79246
7.43459
8.14161
8.91945
9.77282
10.7054
11.7197
12.8171
13.9978
15.2613
16.6063
18.031
19.5305
21.1032
22.7465
24.457
26.231
28.0639
29.9511
31.8876
33.8679
35.8867
37.9381
40.0164
42.1157
44.2299
46.3527
48.4782
50.5997
52.7108
54.8046
56.8744
58.9131
60.9135
62.8689
64.7725
66.6171
68.3956
70.1024
71.7308
73.2743
74.7274
76.0844
77.3412
78.493
79.5355
80.4655
81.2797
81.976
82.5527
83.0082
83.3428
83.554
83.6362
83.6123
83.4985
83.255
82.8964
82.4317
81.8649
81.2008
80.4446
79.6019
78.6786
77.6804
76.6136
75.4839
74.2977
73.0611
71.78
70.4608
69.1096
67.7336
66.3397
64.9398
63.5381
62.1685
60.8007
59.4875
0.485606
0.964863
1.21729
1.40607
1.57135
1.7279
1.884
2.04575
2.21768
2.40333
2.60594
2.82852
3.0739
3.34561
3.64871
3.98688
4.3649
4.78531
5.25609
5.78473
6.37852
7.0467
7.79401
8.62499
9.54413
10.5556
11.6585
12.8506
14.1301
15.4927
16.9339
18.449
20.0268
21.6644
23.36
25.1099
26.91
28.7558
30.6433
32.568
34.5257
36.5117
38.5217
40.5512
42.5958
44.6508
46.7117
48.7736
50.8318
52.8814
54.9167
56.932
58.9217
60.8795
62.7985
64.6734
66.4974
68.2641
69.9661
71.5991
73.1559
74.6303
76.017
77.3097
78.5026
79.5935
80.5785
81.4545
82.2184
82.8681
83.402
83.8187
84.1186
84.2975
84.3472
84.3055
84.1706
83.907
83.5338
83.0562
82.4786
81.8055
81.0421
80.1937
79.2659
78.2645
77.1953
76.0648
74.8783
73.6415
72.3598
71.039
69.6848
68.3038
66.9022
65.4913
64.0736
62.6854
61.288
59.9654
0.476286
0.938053
1.18317
1.36777
1.53063
1.68436
1.83726
1.99647
2.1671
2.35348
2.55965
2.79099
3.05179
3.3471
3.6786
4.05731
4.49326
4.99937
5.58469
6.25675
7.02407
7.89876
8.87994
9.96335
11.144
12.423
13.7872
15.2257
16.7338
18.3009
19.9144
21.5645
23.2504
24.9705
26.7222
28.503
30.3102
32.1414
33.9943
35.8664
37.7553
39.6582
41.5726
43.496
45.4257
47.3589
49.2923
51.2229
53.1477
55.0628
56.9635
58.8452
60.7033
62.532
64.3247
66.0774
67.7832
69.4359
71.0268
72.5505
74.0022
75.3765
76.6681
77.8764
78.9925
80.0126
80.9321
81.7481
82.4572
83.0575
83.5476
83.9255
84.1922
84.3413
84.3637
84.3086
84.1553
83.8779
83.4962
83.0139
82.4349
81.7635
81.0047
80.1635
79.245
78.2548
77.1983
76.0812
74.9088
73.6865
72.4192
71.1121
69.7702
68.3995
67.0055
65.5987
64.1799
62.7873
61.3739
60.0537
0.46671
0.908961
1.14611
1.32655
1.4888
1.64115
1.79195
1.95153
2.12677
2.32563
2.55416
2.81436
3.11856
3.48382
3.92684
4.46053
5.10457
5.88184
6.79574
7.83854
9.00451
10.3025
11.7048
13.1845
14.7216
16.3207
17.9496
19.5958
21.2423
22.8917
24.5465
26.2067
27.8712
29.5404
31.2152
32.8965
34.5846
36.2801
37.9832
39.6938
41.4111
43.1343
44.8629
46.5959
48.3322
50.0707
51.8091
53.5461
55.2799
57.0074
58.7241
60.4268
62.1115
63.7726
65.4026
66.9949
68.5457
70.0498
71.506
72.9049
74.2389
75.5025
76.6907
77.7997
78.8226
79.7566
80.5973
81.3415
81.9864
82.5294
82.9694
83.3037
83.5347
83.6518
83.6503
83.5829
83.414
83.1294
82.7462
82.2672
81.696
81.0368
80.2939
79.4719
78.5758
77.6105
76.5811
75.4927
74.3503
73.1586
71.9221
70.6452
69.3321
67.988
66.6174
65.23
63.8247
62.4411
61.0239
59.7163
0.454243
0.877169
1.10526
1.27983
1.44399
1.60124
1.75631
1.93018
2.13299
2.3735
2.67816
3.07078
3.58368
4.26945
5.1521
6.2245
7.49414
8.96633
10.583
12.2807
14.0259
15.8356
17.6434
19.4187
21.1512
22.8177
24.4368
26.0202
27.573
29.097
30.5966
32.0765
33.5415
34.9961
36.4441
37.8889
39.3332
40.7796
42.2297
43.6847
45.1447
46.6102
48.0819
49.56
51.0444
52.5351
54.0299
55.5296
57.0326
58.5361
60.0353
61.5254
63.0029
64.4635
65.9077
67.3264
68.7127
70.0609
71.3646
72.6189
73.8165
74.9521
76.0206
77.0188
77.9389
78.7786
79.5336
80.2004
80.7764
81.2588
81.6466
81.9365
82.1324
82.2172
82.1999
82.1194
81.9392
81.6538
81.2757
80.8076
80.2527
79.615
78.8982
78.1065
77.2444
76.3164
75.327
74.2808
73.1824
72.0356
70.8444
69.6123
68.3428
67.04
65.7074
64.3533
62.9754
61.6132
60.205
58.9178
0.439775
0.842218
1.0616
1.21966
1.33512
1.57981
1.77601
2.01498
2.35157
2.86996
3.66291
4.75658
6.17426
7.98559
10.0596
12.2395
14.4864
16.7752
18.9842
21.0606
23.0036
24.7813
26.4472
28.0143
29.5096
30.9236
32.2627
33.5442
34.7791
35.977
37.1461
38.2939
39.4276
40.5528
41.6743
42.7959
43.9207
45.0518
46.1908
47.3387
48.4959
49.6635
50.843
52.0349
53.2399
54.4582
55.6874
56.9274
58.1771
59.4343
60.6999
61.9704
63.2389
64.5002
65.7491
66.98
68.1874
69.3655
70.5078
71.6098
72.6638
73.6649
74.608
75.4899
76.3032
77.0451
77.7118
78.2992
78.8052
79.2264
79.5621
79.8078
79.9702
80.0245
79.996
79.9052
79.7178
79.4374
79.0709
78.6208
78.0905
77.4831
76.802
76.051
75.2338
74.3545
73.417
72.4255
71.3838
70.2952
69.1627
67.9891
66.777
65.5292
64.2484
62.9409
61.6037
60.2743
58.8886
57.6267
0.414324
0.808368
1.06254
1.21453
1.16617
1.72596
2.23203
3.11428
4.5079
6.63138
9.43115
12.4507
15.5371
18.7323
21.6967
24.3203
26.6393
28.6053
30.3565
31.9422
33.3973
34.7166
35.9192
37.0147
38.0314
38.9754
39.8569
40.6945
41.4988
42.2807
43.0482
43.8083
44.5677
45.3309
46.1016
46.8823
47.6757
48.4835
49.3067
50.1452
50.9988
51.8689
52.7558
53.6611
54.5861
55.5306
56.5007
57.4924
58.5034
59.531
60.5722
61.6236
62.681
63.7395
64.7937
65.8383
66.8677
67.8763
68.8579
69.8078
70.7188
71.5859
72.404
73.1696
73.8761
74.5203
75.0988
75.6075
76.0445
76.4058
76.6916
76.8957
77.0279
77.0557
77.0199
76.9228
76.7346
76.4648
76.1162
75.6914
75.1935
74.6251
73.989
73.2882
72.5262
71.7062
70.8319
69.9066
68.9336
67.9152
66.854
65.7515
64.6098
63.4298
62.2139
60.9654
59.6822
58.3958
57.047
55.8124
0.389285
0.662746
0.353226
1.59673
2.14887
4.30148
7.45371
11.574
16.1207
20.9752
25.5349
29.1224
32.0291
34.255
36.0679
37.6109
38.9575
40.0791
41.0513
41.8964
42.6496
43.3191
43.9146
44.4413
44.9162
45.3534
45.7613
46.1528
46.5374
46.9241
47.3179
47.7236
48.1454
48.5849
49.0435
49.5224
50.0225
50.5443
51.0867
51.6504
52.2374
52.8475
53.4813
54.1401
54.8252
55.5372
56.2759
57.0416
57.8326
58.6467
59.4809
60.3314
61.1943
62.0647
62.9374
63.8073
64.6689
65.5164
66.3443
67.1482
67.9216
68.6595
69.357
70.0106
70.6147
71.1653
71.6597
72.0936
72.4655
72.7708
73.0109
73.1775
73.2839
73.2916
73.252
73.1534
72.9721
72.7187
72.3947
72.0027
71.5452
71.0243
70.4419
69.8007
69.1034
68.3529
67.5522
66.7039
65.8108
64.8741
63.8959
62.8765
61.8172
60.7173
59.5789
58.401
57.1849
55.9509
54.6549
53.4462
0.435095
1.42214
2.53661
8.74079
12.7887
22.0051
29.5463
35.5634
39.9338
42.7416
44.5024
45.4945
46.2509
46.792
47.1961
47.5033
47.7704
47.9913
48.1717
48.3225
48.4561
48.5652
48.647
48.7033
48.7458
48.7865
48.8321
48.8907
48.9683
49.0709
49.1987
49.3547
49.5403
49.7535
49.9937
50.2606
50.5535
50.8711
51.2109
51.5725
51.956
52.3639
52.7977
53.2594
53.7505
54.2715
54.8226
55.403
56.0116
56.646
57.3037
57.9811
58.6743
59.3787
60.0899
60.8028
61.5125
62.2138
62.9014
63.5713
64.2178
64.8364
65.4223
65.9721
66.4812
66.9455
67.3625
67.7279
68.0408
68.2961
68.4964
68.6314
68.7176
68.7136
68.6735
68.5797
68.4134
68.183
67.8908
67.5392
67.1302
66.6651
66.1452
65.5725
64.9494
64.2779
63.5606
62.7995
61.9966
61.1524
60.2681
59.343
58.3778
57.3695
56.3208
55.2246
54.089
52.9155
51.6906
50.5028
0.86402
15.6481
24.6664
44.4591
49.2046
57.1323
57.0964
56.4946
55.4212
53.9774
52.8196
51.788
51.0287
50.4906
50.1237
49.8577
49.6625
49.5205
49.3919
49.2784
49.1689
49.042
48.8957
48.742
48.5902
48.4557
48.3465
48.269
48.2256
48.2198
48.2442
48.3036
48.3947
48.5118
48.654
48.82
49.0076
49.214
49.4367
49.6766
49.9345
50.2143
50.518
50.8484
51.207
51.5945
52.0112
52.4563
52.9285
53.4258
53.9457
54.4849
55.0402
55.6075
56.1829
56.7621
57.341
57.9151
58.4797
59.0312
59.5651
60.0773
60.5637
61.0208
61.4451
61.8325
62.1811
62.4864
62.7485
62.9612
63.1292
63.24
63.3123
63.3061
63.27
63.1885
63.0456
62.8455
62.5926
62.2893
61.9371
61.5363
61.0874
60.5919
60.0517
59.4682
58.8437
58.1792
57.4765
56.7346
55.9548
55.1346
54.2745
53.3689
52.4217
51.4181
50.3766
49.2711
48.1374
46.9624
1.14807
3.82469
5.58642
9.74413
12.2619
16.3184
20.0515
23.3034
26.6347
29.5061
32.2298
34.4387
36.3973
37.9837
39.2541
40.2246
40.9616
41.5366
41.9457
42.2786
42.4954
42.5935
42.6274
42.6435
42.6625
42.7032
42.77
42.8643
42.9853
43.1249
43.2827
43.4529
43.6348
43.8195
44.0099
44.2051
44.4013
44.5963
44.7889
44.9847
45.187
45.402
45.6325
45.8824
46.1531
46.4458
46.7607
47.0968
47.4532
47.8281
48.2196
48.6249
49.0419
49.4675
49.899
50.3333
50.7674
51.1983
51.6225
52.0369
52.4387
52.8246
53.1915
53.5362
53.8567
54.1489
54.4123
54.6418
54.8393
54.9975
55.1233
55.2027
55.2547
55.2459
55.2122
55.1465
55.0346
54.8715
54.6691
54.4285
54.1507
53.8343
53.4785
53.0848
52.6547
52.1883
51.6881
51.1536
50.5865
49.9839
49.3473
48.6714
47.9574
47.1951
46.3914
45.5182
44.6142
43.603
42.6134
41.4359
0.691808
0.723073
0.816818
0.869447
1.04141
1.14866
1.4854
1.72327
2.18566
2.64809
3.33079
4.13559
5.1444
6.2893
7.57878
8.9736
10.4636
12.0245
13.6321
15.25
16.8677
18.5143
20.1243
21.6817
23.1455
24.5142
25.7636
26.9032
27.9286
28.8459
29.6826
30.4272
31.1044
31.7082
32.2743
32.7827
33.2255
33.6116
33.9604
34.2903
34.608
34.9231
35.2363
35.5525
35.8706
36.1915
36.5156
36.8404
37.1674
37.4951
37.8231
38.1497
38.4753
38.7981
39.1183
39.4342
39.7453
40.05
40.3471
40.635
40.9127
41.178
41.4304
41.6665
41.887
42.0875
42.2704
42.4296
42.5701
42.683
42.7779
42.8418
42.8854
42.898
42.8837
42.8537
42.7993
42.7026
42.5839
42.4426
42.2781
42.0865
41.8656
41.6184
41.346
41.0474
40.7259
40.3787
40.0084
39.6078
39.1805
38.7165
38.2187
37.6707
37.0823
36.4084
35.7176
34.8576
34.1016
32.9081
0.44184
0.443432
0.44749
0.447953
0.450247
0.450564
0.452127
0.453648
0.456944
0.461475
0.470302
0.484988
0.509442
0.545729
0.574065
0.702379
0.774485
0.958641
1.09267
1.32358
1.55816
1.88608
2.27513
2.75643
3.30762
3.94048
4.63811
5.40688
6.22789
7.09964
8.00459
8.9415
9.88084
10.8293
11.7506
12.6711
13.5868
14.4998
15.3869
16.2465
17.0615
17.8374
18.562
19.2455
19.8793
20.475
21.0278
21.5452
22.0312
22.4835
22.9097
23.3083
23.6856
24.0389
24.3746
24.69
24.9901
25.2712
25.5379
25.7892
26.0281
26.2518
26.4652
26.6631
26.8521
27.0252
27.1909
27.3401
27.4831
27.6091
27.7296
27.833
27.9152
27.9836
28.0336
28.0736
28.1089
28.1129
28.1404
28.1417
28.1298
28.097
28.0419
27.9772
27.9022
27.8143
27.7182
27.6057
27.4818
27.332
27.1659
26.9649
26.7367
26.4574
26.1315
25.718
25.2843
24.661
24.1123
23.0218
0.390292
0.390451
0.390598
0.390454
0.390316
0.38983
0.389415
0.388711
0.38815
0.38729
0.386666
0.385807
0.385386
0.384812
0.384691
0.385298
0.386377
0.388014
0.390351
0.393259
0.39743
0.402992
0.411281
0.422301
0.439109
0.450308
0.5056
0.532038
0.614658
0.661056
0.768221
0.847019
0.973633
1.10306
1.26709
1.46283
1.68114
1.93622
2.21733
2.53093
2.86466
3.22392
3.59501
3.98242
4.37285
4.76888
5.16031
5.54629
5.92282
6.2863
6.63425
6.9656
7.2792
7.57424
7.85219
8.11124
8.35312
8.57982
8.79391
8.99449
9.18329
9.36135
9.52934
9.68708
9.83827
9.98162
10.1217
10.256
10.3883
10.5188
10.645
10.7776
10.9146
11.0652
11.2222
11.3869
11.5653
11.7422
11.9383
12.1398
12.346
12.5517
12.7479
12.9431
13.1279
13.307
13.487
13.6518
13.8155
13.9534
14.0896
14.1902
14.2676
14.2791
14.2353
14.1542
13.9927
13.7025
13.3139
12.5249
0.374228
0.374048
0.373868
0.373642
0.373422
0.373139
0.372856
0.372506
0.37215
0.37173
0.371296
0.370812
0.370308
0.369786
0.369234
0.368702
0.36816
0.367661
0.367151
0.366706
0.366244
0.365875
0.365507
0.365277
0.365139
0.365108
0.365573
0.366147
0.367333
0.368142
0.371036
0.372412
0.377293
0.379162
0.386226
0.389185
0.400183
0.404944
0.422212
0.429725
0.455722
0.467013
0.504226
0.520552
0.568665
0.59064
0.647932
0.676154
0.741301
0.775347
0.846394
0.88493
0.959368
1.0011
1.076
1.12045
1.19438
1.2408
1.3154
1.36164
1.43695
1.48115
1.55972
1.59304
1.66524
1.69511
1.76417
1.79252
1.86141
1.88973
1.96103
1.99019
2.06889
2.10146
2.19546
2.23372
2.34698
2.39406
2.51424
2.57671
2.69699
2.78242
2.89731
3.00488
3.12467
3.25201
3.38483
3.51857
3.6596
3.79565
3.94214
4.07311
4.20854
4.30512
4.40347
4.41514
4.40488
4.37272
4.23712
3.87277
0.368942
0.368678
0.368407
0.368124
0.367836
0.367536
0.367229
0.366909
0.366578
0.366236
0.365881
0.365517
0.365136
0.364749
0.364343
0.363934
0.363508
0.363082
0.36264
0.362201
0.361747
0.361296
0.360833
0.360374
0.359908
0.359445
0.358987
0.358541
0.358109
0.357691
0.357296
0.356927
0.356607
0.356306
0.356061
0.355835
0.355704
0.355561
0.355717
0.355799
0.356099
0.356426
0.35703
0.357588
0.358637
0.359214
0.361504
0.362306
0.364967
0.365918
0.368864
0.369967
0.373306
0.374649
0.378011
0.379981
0.382192
0.384537
0.387065
0.389852
0.392751
0.395975
0.399188
0.4026
0.405921
0.409447
0.412872
0.416564
0.420181
0.424162
0.428084
0.432525
0.436993
0.442284
0.447691
0.454269
0.461084
0.469365
0.477903
0.487976
0.496939
0.511209
0.519361
0.544198
0.553117
0.582551
0.593198
0.626988
0.640127
0.678118
0.6948
0.735923
0.750892
0.783357
0.803801
0.832291
0.839992
0.840622
0.855187
0.752813
0.367652
0.367333
0.36701
0.366682
0.366349
0.366012
0.365669
0.365322
0.364969
0.364612
0.364249
0.363881
0.363507
0.363128
0.362742
0.362351
0.361954
0.361551
0.361142
0.360727
0.360307
0.359881
0.359449
0.359012
0.35857
0.358121
0.357669
0.357211
0.356751
0.356285
0.355817
0.355345
0.354873
0.354396
0.353922
0.353444
0.352969
0.352491
0.352022
0.351554
0.351096
0.350641
0.350202
0.349768
0.349356
0.348945
0.348572
0.348209
0.347883
0.347563
0.347277
0.346999
0.346758
0.346527
0.346334
0.346156
0.346004
0.345866
0.34576
0.345686
0.345628
0.345633
0.345679
0.345762
0.345885
0.346051
0.346257
0.346502
0.346787
0.347099
0.347487
0.347751
0.348569
0.348894
0.349809
0.350189
0.351243
0.351688
0.352911
0.35343
0.354804
0.355359
0.356957
0.35763
0.359597
0.360385
0.362686
0.363568
0.366166
0.36716
0.370076
0.371099
0.373784
0.374744
0.377092
0.378298
0.379915
0.379262
0.378074
0.371827
0.367411
0.367077
0.366739
0.366396
0.366049
0.365697
0.365342
0.364981
0.364617
0.364247
0.363873
0.363494
0.363112
0.362724
0.362333
0.361936
0.361536
0.36113
0.360722
0.360307
0.35989
0.359467
0.359041
0.358608
0.358173
0.35773
0.357285
0.356832
0.356376
0.355913
0.355448
0.354974