/*--------------------------------*- C++ -*----------------------------------*\
| =========                 |                                                 |
| \\      /  F ield         | OpenFOAM: The Open Source CFD Toolbox           |
|  \\    /   O peration     | Version:  5.x                                   |
|   \\  /    A nd           | Web:      www.OpenFOAM.org                      |
|    \\/     M anipulation  |                                                 |
\*---------------------------------------------------------------------------*/
FoamFile
{
    version     2.0;
    format      ascii;
    class       volScalarField;
    location    "239";
    object      nut;
}
// * * * * * * * * * * * * * * * * * * * * * * * * * * * * * * * * * * * * * //

dimensions      [0 2 -1 0 0 0 0];

internalField   nonuniform List<scalar> 
5760
(
8.02402e-05
7.93179e-05
7.89277e-05
7.82173e-05
7.78708e-05
7.72182e-05
7.6969e-05
7.64775e-05
7.63569e-05
7.61176e-05
7.61783e-05
7.61199e-05
7.64832e-05
7.65691e-05
7.7219e-05
7.72195e-05
7.88554e-05
7.65091e-05
0.000695986
0.000553371
0.000484746
0.000435235
0.000406217
0.000380504
0.000369477
0.000352334
0.000352494
0.000339077
0.000345785
0.000334075
0.000344673
0.000333473
0.000346894
0.000333913
0.000354998
0.000321781
0.000865289
0.000824411
0.00080751
0.000767263
0.000743247
0.000705826
0.000686483
0.00065489
0.000640735
0.000613312
0.000603547
0.000578751
0.000571981
0.000550323
0.000543991
0.000527242
0.000516483
0.000499506
0.000854198
0.000850436
0.000851283
0.000844477
0.000843887
0.000832335
0.000828817
0.00081514
0.00081016
0.000796154
0.000790579
0.000777139
0.000771223
0.000758808
0.000752519
0.000741543
0.000733845
0.000723329
0.000852273
0.000851765
0.000852038
0.000851621
0.000851557
0.000851046
0.000850664
0.000849154
0.000848304
0.000846072
0.000844791
0.000841947
0.000840352
0.000837112
0.000835278
0.000831887
0.000829593
0.000825886
0.000852005
0.000851787
0.000851809
0.000851637
0.000851672
0.000851514
0.000851571
0.000851401
0.0008514
0.0008512
0.00085109
0.000850847
0.000850594
0.00085032
0.000849906
0.000849637
0.00084907
0.000848575
0.00085195
0.000851817
0.000851749
0.000851633
0.000851568
0.000851469
0.000851411
0.000851333
0.000851283
0.000851221
0.000851173
0.00085112
0.000851072
0.00085102
0.000850969
0.00085091
0.000850859
0.000850788
0.000851935
0.000851828
0.000851733
0.000851637
0.00085155
0.000851464
0.000851384
0.000851307
0.000851235
0.000851166
0.000851102
0.000851039
0.000850982
0.000850926
0.000850875
0.000850824
0.00085078
0.000850733
0.000851933
0.000851829
0.000851731
0.000851635
0.000851547
0.00085146
0.00085138
0.0008513
0.000851228
0.000851155
0.00085109
0.000851022
0.000850964
0.000850903
0.00085085
0.000850794
0.000850747
0.000850694
0.000851934
0.000851828
0.00085173
0.000851634
0.000851546
0.000851457
0.000851378
0.000851296
0.000851225
0.00085115
0.000851085
0.000851016
0.000850958
0.000850895
0.000850842
0.000850783
0.000850736
0.00085068
0.000851934
0.000851827
0.00085173
0.000851632
0.000851545
0.000851455
0.000851376
0.000851293
0.000851222
0.000851145
0.000851081
0.000851011
0.000850953
0.000850887
0.000850836
0.000850774
0.000850728
0.00085067
0.000851934
0.000851827
0.000851731
0.000851631
0.000851544
0.000851453
0.000851375
0.00085129
0.00085122
0.000851141
0.000851079
0.000851006
0.00085095
0.000850882
0.000850832
0.000850769
0.000850725
0.000850665
0.000851936
0.000851825
0.000851732
0.000851629
0.000851546
0.000851451
0.000851377
0.000851288
0.000851223
0.000851141
0.000851083
0.000851006
0.000850955
0.000850883
0.000850838
0.000850769
0.00085073
0.000850664
0.000851941
0.00085182
0.000851739
0.000851623
0.000851554
0.000851443
0.000851384
0.000851279
0.00085123
0.000851131
0.000851092
0.000850999
0.00085097
0.000850881
0.00085086
0.000850775
0.000850763
0.00085068
0.000851945
0.000851815
0.000851746
0.000851617
0.000851565
0.000851439
0.000851405
0.000851284
0.000851266
0.000851148
0.000851143
0.000851025
0.000851029
0.00085091
0.000850924
0.000850802
0.000850826
0.000850698
0.000851861
0.000851906
0.000851669
0.000851717
0.000851514
0.000851609
0.000851444
0.00085156
0.000851392
0.000851496
0.0008513
0.000851375
0.00085114
0.000851178
0.0008509
0.000850898
0.000850578
0.000850522
0.000851784
0.000851971
0.000851716
0.000851966
0.000851751
0.000851485
0.000850723
0.00084973
0.000848109
0.000846548
0.000843954
0.000841861
0.00083831
0.000835735
0.000831238
0.000828452
0.000822022
0.000820232
0.000851023
0.00085163
0.000842956
0.000837007
0.000816686
0.000803828
0.000773583
0.000756084
0.00071934
0.00069938
0.000659028
0.000638195
0.000597218
0.000576822
0.00053713
0.000519693
0.000477507
0.00046831
0.000795285
0.000701677
0.000523938
0.000443627
0.000341845
0.000294622
0.000234463
0.000206513
0.000169535
0.000152409
0.000128857
0.000118117
0.000102724
9.57986e-05
8.55872e-05
8.10289e-05
7.41089e-05
7.09429e-05
0.000179207
4.80855e-05
5.43118e-05
6.04254e-05
6.72539e-05
7.37544e-05
8.06061e-05
8.72467e-05
9.40115e-05
0.000100584
0.000107131
0.000113473
0.00011969
0.000125684
0.00013149
0.000137062
0.000142409
0.000147517
0.000109117
3.64699e-05
4.91028e-05
5.30248e-05
5.93323e-05
5.96486e-05
6.05414e-05
6.16368e-05
6.35729e-05
6.65844e-05
7.04243e-05
7.47015e-05
7.93703e-05
8.49884e-05
9.16505e-05
9.93165e-05
0.000107809
0.000116856
0.000126198
0.000135637
0.000145044
0.000154295
0.000163379
0.000172273
0.000180986
0.000189532
0.000197932
0.000206208
0.00021438
0.000222469
0.000230489
0.000238454
0.000246375
0.000254258
0.000262107
0.000269922
0.000277702
0.000285443
0.000293138
0.000300781
0.000308362
0.000315871
0.000323296
0.000330625
0.000337845
0.000344943
0.000351904
0.000358716
0.000365363
0.000371832
0.000378105
0.000384169
0.000390003
0.000395589
0.000400901
0.000405917
0.000410625
0.000415081
0.000419264
0.000423161
0.000426769
0.000430079
0.000433085
0.000435779
0.000438154
0.000440207
0.000441932
0.000443326
0.000444388
0.000445116
0.000445513
0.000445583
0.000445334
0.000444771
0.000443859
0.00044259
0.000441038
0.000439284
0.000437207
0.000434818
0.000432158
0.000429237
0.000426068
0.000422665
0.000419042
0.000415213
0.000411194
0.000406999
0.000402646
0.000398151
0.000393533
0.000388808
0.000384003
0.000379137
0.000374319
0.000370747
0.000367848
0.000364638
0.000361718
0.000353148
2.10342e-05
6.46922e-05
0.00014994
0.000247151
0.000356685
0.000417581
0.000436945
0.000440576
0.000445598
0.000456804
0.000470695
0.000484515
0.000494855
0.000505877
0.000521309
0.000543523
0.000573121
0.000609777
0.000652677
0.000700814
0.000755019
0.000811784
0.000871205
0.000932393
0.000994758
0.00105785
0.00112138
0.00118521
0.0012493
0.00131367
0.00137841
0.00144362
0.00150944
0.00157599
0.00164337
0.00171169
0.00178101
0.00185139
0.00192284
0.00199536
0.00206893
0.00214349
0.00221896
0.00229525
0.00237224
0.0024498
0.00252779
0.00260606
0.00268444
0.00276277
0.00284091
0.00291868
0.00299593
0.00307246
0.00314795
0.00322169
0.00329193
0.00335501
0.00341532
0.00347385
0.0035303
0.00358459
0.00363656
0.0036861
0.00373308
0.00377739
0.00381893
0.0038576
0.00389331
0.00392598
0.00395556
0.00398203
0.00400544
0.00402597
0.00404422
0.00405737
0.00406639
0.00407489
0.00408049
0.00408237
0.00408116
0.00407705
0.00407015
0.0040606
0.00404849
0.00403395
0.00401711
0.00399812
0.00397715
0.00395437
0.00392998
0.00390418
0.00387717
0.00384899
0.00381876
0.00377446
0.00372343
0.00366977
0.003613
0.00349849
2.97136e-05
0.000114515
0.000293224
0.000486267
0.000623817
0.000697336
0.00073231
0.000751399
0.000767104
0.000784024
0.00080493
0.00083079
0.000864681
0.000906392
0.000958249
0.00102169
0.00109689
0.00118314
0.00127907
0.00138296
0.00149012
0.00160627
0.00172533
0.0018464
0.00196867
0.00209165
0.00221508
0.00233896
0.00246339
0.00258851
0.00271451
0.00284151
0.0029698
0.00309956
0.00323094
0.00336405
0.00349898
0.00363577
0.00377439
0.00391481
0.00405694
0.00420064
0.00434574
0.00449206
0.00463936
0.00478739
0.00493587
0.00508452
0.00523303
0.00538109
0.00552836
0.00567451
0.00581913
0.00596176
0.00610172
0.00623798
0.00636906
0.00649377
0.00661487
0.00673226
0.00684555
0.00695451
0.00705885
0.00715832
0.00725269
0.00734173
0.00742523
0.00750299
0.00757484
0.00764062
0.00770021
0.00775357
0.0078008
0.00784219
0.00787902
0.0079072
0.00792531
0.00794313
0.00795409
0.00795829
0.00795634
0.00794852
0.00793505
0.00791615
0.00789203
0.00786294
0.00782914
0.00779091
0.00774856
0.00770245
0.00765292
0.00760039
0.00754522
0.00748762
0.00742662
0.00735146
0.00726803
0.00717892
0.00708144
0.00689135
3.81025e-05
0.000195482
0.000471313
0.000698379
0.000832561
0.000901906
0.000939483
0.000967058
0.000995954
0.00103078
0.00107341
0.0011251
0.00118772
0.00126264
0.00135149
0.00145488
0.00157225
0.00170222
0.00184294
0.00199253
0.00214945
0.00230869
0.00247087
0.00263528
0.00280118
0.00296811
0.00313576
0.00330433
0.00347409
0.00364527
0.00381823
0.00399346
0.00417057
0.00434978
0.00453122
0.00471502
0.00490121
0.00508981
0.00528076
0.00547396
0.00566925
0.00586645
0.00606531
0.00626554
0.00646684
0.00666885
0.00687119
0.00707348
0.00727529
0.00747618
0.00767571
0.00787337
0.00806864
0.0082609
0.0084494
0.00863325
0.00881138
0.00898364
0.00915116
0.00931359
0.00947049
0.00962152
0.0097663
0.0099045
0.0100358
0.0101599
0.0102765
0.0103853
0.0104862
0.0105788
0.0106631
0.0107388
0.0108062
0.0108656
0.0109198
0.0109606
0.0109892
0.011017
0.0110348
0.0110437
0.0110442
0.0110366
0.0110213
0.0109985
0.0109684
0.0109315
0.010888
0.0108383
0.0107828
0.0107219
0.0106562
0.010586
0.0105121
0.0104346
0.0103529
0.0102599
0.010159
0.0100512
0.00993175
0.00971662
4.8062e-05
0.00038207
0.000683888
0.000889843
0.00101132
0.00107975
0.00112383
0.00116266
0.00120633
0.0012592
0.00132309
0.00139936
0.00148954
0.00159487
0.00171607
0.00185286
0.002004
0.00216761
0.00234157
0.00252371
0.00271192
0.00290386
0.00309907
0.00329684
0.0034966
0.00369809
0.0039014
0.00410636
0.00431292
0.00452122
0.00473135
0.00494327
0.00515753
0.00537429
0.00559366
0.0058157
0.00604042
0.00626775
0.00649761
0.00672984
0.00696421
0.00720049
0.00743836
0.00767748
0.00791746
0.00815791
0.00839837
0.00863839
0.00887748
0.00911515
0.00935087
0.0095841
0.00981426
0.0100407
0.0102628
0.01048
0.0106918
0.0108981
0.0110987
0.0112934
0.0114817
0.0116631
0.0118373
0.0120039
0.0121625
0.0123127
0.0124543
0.0125868
0.0127101
0.0128239
0.0129278
0.0130219
0.0131061
0.0131815
0.0132509
0.0133026
0.0133434
0.0133813
0.0134076
0.0134235
0.0134296
0.0134261
0.0134133
0.0133917
0.0133615
0.013323
0.0132765
0.0132226
0.0131617
0.0130941
0.0130206
0.0129415
0.0128576
0.0127694
0.0126764
0.0125746
0.012466
0.0123505
0.0122219
0.0120098
5.87445e-05
0.000479255
0.000825662
0.00104319
0.00116949
0.00124468
0.00129837
0.00134931
0.00140743
0.00147722
0.00156066
0.00165902
0.00177335
0.00190423
0.00205158
0.00221442
0.00239111
0.00257964
0.00277791
0.00298389
0.00319574
0.00341194
0.00363173
0.00385445
0.0040796
0.00430693
0.00453632
0.00476767
0.00500093
0.00523617
0.00547347
0.00571295
0.00595489
0.0061994
0.00644657
0.0066964
0.00694886
0.00720389
0.00746136
0.00772107
0.00798282
0.00824631
0.00851123
0.00877724
0.00904393
0.00931088
0.00957765
0.00984377
0.0101087
0.010372
0.0106331
0.0108914
0.0111464
0.0113975
0.0116441
0.0118857
0.0121219
0.0123523
0.0125767
0.0127947
0.0130058
0.0132096
0.0134055
0.0135933
0.0137724
0.0139426
0.0141034
0.0142545
0.0143956
0.0145264
0.0146466
0.0147559
0.0148542
0.0149442
0.0150262
0.0150887
0.0151419
0.0151898
0.0152253
0.0152494
0.0152626
0.0152654
0.0152579
0.0152406
0.0152137
0.0151776
0.0151327
0.0150793
0.015018
0.0149491
0.0148734
0.0147913
0.0147035
0.0146105
0.0145126
0.0144076
0.0142967
0.0141798
0.01405
0.0138531
6.24821e-05
0.000542954
0.00093284
0.00117313
0.00131323
0.00139995
0.00146512
0.00152832
0.00160003
0.00168512
0.00178572
0.00190287
0.00203706
0.00218823
0.00235569
0.00253803
0.00273348
0.00294007
0.00315587
0.00337917
0.00360837
0.00384222
0.0040799
0.00432076
0.00456438
0.00481049
0.00505887
0.00530946
0.00556219
0.00581697
0.00607385
0.00633294
0.00659437
0.00685825
0.00712459
0.0073934
0.00766465
0.00793823
0.00821404
0.0084919
0.00877159
0.00905286
0.00933542
0.00961893
0.00990303
0.0101873
0.0104714
0.0107547
0.0110369
0.0113175
0.0115958
0.0118715
0.0121438
0.0124123
0.0126765
0.0129357
0.0131897
0.0134379
0.0136799
0.0139154
0.0141438
0.0143646
0.0145775
0.0147818
0.0149773
0.0151635
0.01534
0.0155064
0.0156624
0.0158077
0.0159418
0.0160646
0.0161757
0.0162788
0.0163709
0.0164449
0.0165103
0.0165682
0.0166132
0.0166461
0.0166676
0.0166779
0.0166774
0.0166663
0.016645
0.0166139
0.0165732
0.0165233
0.0164649
0.0163982
0.0163239
0.0162426
0.0161549
0.0160615
0.0159627
0.0158579
0.015748
0.0156332
0.0155067
0.0153302
6.58392e-05
0.000591914
0.00102018
0.00128578
0.00144361
0.00154459
0.00162246
0.0016979
0.00178219
0.00188074
0.00199582
0.00212825
0.002278
0.00244454
0.00262705
0.00282361
0.00303239
0.00325156
0.0034793
0.00371384
0.00395451
0.00420033
0.00445046
0.00470416
0.00496065
0.00521929
0.00548023
0.00574356
0.00600927
0.00627694
0.00654651
0.00681804
0.00709164
0.00736737
0.00764527
0.00792535
0.00820757
0.00849189
0.00877821
0.00906642
0.00935636
0.00964781
0.00994055
0.0102343
0.0105287
0.0108235
0.0111183
0.0114126
0.011706
0.011998
0.0122881
0.0125758
0.0128606
0.0131418
0.0134191
0.0136917
0.0139593
0.0142213
0.0144773
0.0147267
0.0149691
0.015204
0.0154308
0.0156491
0.0158584
0.0160583
0.0162484
0.0164282
0.0165975
0.0167557
0.0169026
0.0170377
0.0171608
0.0172757
0.0173772
0.017463
0.0175402
0.0176084
0.0176631
0.0177054
0.0177357
0.0177545
0.0177619
0.0177583
0.0177441
0.0177194
0.0176847
0.0176405
0.017587
0.0175248
0.0174545
0.0173765
0.0172916
0.0172004
0.0171035
0.0170011
0.0168942
0.0167836
0.0166627
0.0165068
6.87171e-05
0.000628768
0.00109083
0.00138213
0.00155955
0.00167644
0.00176783
0.00185541
0.00195128
0.00206145
0.00218837
0.00233295
0.00249445
0.00267145
0.00286185
0.00306576
0.00328147
0.00350734
0.00374184
0.00398381
0.004232
0.00448545
0.00474315
0.00500439
0.00526878
0.00553602
0.00580549
0.00607635
0.00634899
0.00662324
0.00689891
0.00717612
0.00745498
0.00773559
0.00801803
0.00830234
0.00858858
0.00887676
0.00916689
0.00945892
0.00975278
0.0100483
0.0103455
0.0106439
0.0109435
0.0112438
0.0115447
0.0118456
0.0121461
0.0124459
0.0127443
0.0130409
0.0133351
0.0136263
0.013914
0.0141976
0.0144764
0.01475
0.0150179
0.0152794
0.015534
0.0157812
0.0160205
0.0162513
0.0164731
0.0166856
0.0168881
0.0170804
0.017262
0.0174325
0.0175915
0.0177384
0.0178735
0.0179989
0.0181101
0.0182078
0.0182966
0.0183755
0.0184402
0.0184921
0.0185318
0.0185596
0.0185758
0.0185807
0.0185744
0.0185575
0.0185301
0.0184928
0.0184459
0.0183898
0.018325
0.0182522
0.0181719
0.0180849
0.0179919
0.0178934
0.017791
0.0176856
0.0175713
0.0174344
7.1172e-05
0.000654308
0.00114558
0.00146195
0.00165971
0.00179338
0.00189877
0.00199829
0.00210474
0.00222493
0.00236068
0.00251133
0.00267778
0.00285967
0.00305622
0.00326608
0.00348708
0.00371764
0.00395637
0.00420204
0.00445339
0.00470935
0.00496926
0.00523248
0.00549838
0.00576652
0.00603651
0.00630846
0.00658253
0.00685716
0.00713237
0.00740851
0.00768586
0.00796461
0.00824492
0.00852697
0.00881094
0.00909697
0.00938519
0.00967566
0.00996842
0.0102634
0.0105607
0.0108599
0.011161
0.0114638
0.0117678
0.0120728
0.0123782
0.0126836
0.0129885
0.0132924
0.0135945
0.0138943
0.0141912
0.0144844
0.0147735
0.0150577
0.0153365
0.0156092
0.0158752
0.016134
0.016385
0.0166277
0.0168616
0.017086
0.0173007
0.017505
0.0176986
0.0178811
0.018052
0.0182108
0.0183577
0.0184931
0.0186145
0.0187242
0.0188244
0.0189149
0.0189897
0.0190517
0.0191014
0.0191389
0.0191645
0.0191785
0.0191812
0.0191729
0.0191539
0.0191246
0.0190854
0.0190367
0.0189789
0.0189126
0.0188384
0.018757
0.0186693
0.018576
0.0184789
0.0183794
0.0182722
0.0181524
7.30153e-05
0.000670164
0.0011855
0.00152523
0.00174318
0.00189385
0.00201328
0.00212453
0.00223991
0.00236477
0.00250405
0.00265983
0.0028321
0.00301898
0.00321926
0.00343062
0.00365207
0.00388227
0.00411987
0.00436351
0.0046123
0.0048653
0.00512182
0.00538118
0.00564259
0.00590574
0.00617005
0.0064361
0.00670441
0.00697313
0.00724105
0.00750924
0.00777831
0.00804865
0.00832059
0.00859448
0.0088707
0.00914957
0.00943136
0.00971626
0.0100044
0.0102958
0.0105905
0.0108884
0.0111893
0.0114928
0.0117988
0.0121068
0.0124163
0.0127268
0.0130377
0.0133483
0.013658
0.0139661
0.0142719
0.0145746
0.0148736
0.0151682
0.0154577
0.0157414
0.0160187
0.016289
0.0165516
0.016806
0.0170517
0.0172881
0.0175147
0.0177311
0.0179367
0.0181312
0.0183141
0.0184849
0.0186435
0.0187894
0.0189214
0.0190428
0.019155
0.0192578
0.019343
0.0194157
0.0194758
0.0195237
0.0195595
0.0195834
0.0195959
0.0195971
0.0195874
0.0195672
0.0195367
0.0194965
0.0194469
0.0193884
0.0193216
0.0192471
0.0191659
0.0190788
0.0189879
0.0188948
0.0187947
0.0186904
7.42751e-05
0.000677743
0.00121173
0.00157234
0.00180972
0.00197705
0.00210933
0.00222773
0.00234806
0.00247929
0.00262489
0.00278525
0.00295913
0.00314578
0.003344
0.00355237
0.00376966
0.00399462
0.00422624
0.00446349
0.00470439
0.0049479
0.00519357
0.00544099
0.00568978
0.00594068
0.00619455
0.0064494
0.00670312
0.0069567
0.00721014
0.00746344
0.00771781
0.00797383
0.00823201
0.00849298
0.00875737
0.00902568
0.00929831
0.00957552
0.00985749
0.0101443
0.0104359
0.0107321
0.0110326
0.0113373
0.0116456
0.0119571
0.0122712
0.0125873
0.0129047
0.0132227
0.0135405
0.0138573
0.0141724
0.0144849
0.0147942
0.0150993
0.0153997
0.0156945
0.0159832
0.016265
0.0165393
0.0168056
0.0170632
0.0173116
0.0175502
0.0177787
0.0179965
0.0182032
0.0183983
0.0185813
0.0187518
0.0189086
0.0190517
0.019185
0.0193101
0.0194252
0.0195216
0.0196054
0.0196768
0.0197357
0.0197824
0.0198172
0.0198403
0.0198519
0.0198525
0.0198424
0.0198218
0.0197912
0.0197509
0.0197014
0.0196431
0.0195768
0.0195033
0.0194235
0.0193396
0.0192534
0.0191606
0.0190702
7.49909e-05
0.000677884
0.00122538
0.00160348
0.00185617
0.00203577
0.00217793
0.00230675
0.00243579
0.0025724
0.00271967
0.00287932
0.00305128
0.00323566
0.00343053
0.00363365
0.00384341
0.00405826
0.00427697
0.00449794
0.00472095
0.0049447
0.00516989
0.00539694
0.00562838
0.00586112
0.0060931
0.00632334
0.00655295
0.00678293
0.00701408
0.0072464
0.00748108
0.00771876
0.00795994
0.00820561
0.00845664
0.00871369
0.00897716
0.0092473
0.00952419
0.00980778
0.0100979
0.0103943
0.0106965
0.0110041
0.0113166
0.0116333
0.0119536
0.0122767
0.0126018
0.0129282
0.0132549
0.0135813
0.0139063
0.0142291
0.0145489
0.014865
0.0151765
0.0154827
0.0157828
0.0160763
0.0163623
0.0166404
0.01691
0.0171705
0.0174213
0.017662
0.0178921
0.018111
0.0183185
0.018514
0.0186966
0.0188641
0.0190202
0.019165
0.0193041
0.0194314
0.0195397
0.0196355
0.0197188
0.0197896
0.0198482
0.0198946
0.0199293
0.0199524
0.0199644
0.0199654
0.0199558
0.019936
0.0199062
0.0198669
0.0198185
0.0197616
0.0196969
0.0196255
0.0195495
0.019471
0.0193856
0.0193083
7.52322e-05
0.000673096
0.0012258
0.00161378
0.00187944
0.00207268
0.00222726
0.00236535
0.00250022
0.00263985
0.00278777
0.00294533
0.00311211
0.00328667
0.00346699
0.00365237
0.00384146
0.00403186
0.0042239
0.00441749
0.0046132
0.00481467
0.00501724
0.00521993
0.00542166
0.00562229
0.00581988
0.00601651
0.00621365
0.00641333
0.00661765
0.00682644
0.00704056
0.00726027
0.00748545
0.00771769
0.00795804
0.0082071
0.00846513
0.00873215
0.009008
0.00929238
0.00958488
0.009885
0.0101921
0.0105057
0.0108249
0.011149
0.0114773
0.0118089
0.0121431
0.0124788
0.0128153
0.0131516
0.0134869
0.0138202
0.0141507
0.0144777
0.0148002
0.0151176
0.0154291
0.0157339
0.0160316
0.0163213
0.0166027
0.0168751
0.017138
0.0173909
0.0176332
0.0178646
0.0180846
0.0182927
0.0184865
0.0186667
0.0188362
0.0189927
0.0191467
0.019286
0.019407
0.0195156
0.0196117
0.0196953
0.0197666
0.0198257
0.019873
0.0199088
0.0199331
0.0199465
0.0199492
0.0199414
0.0199235
0.0198957
0.0198585
0.0198122
0.0197578
0.019696
0.019629
0.0195589
0.0194813
0.0194164
7.51441e-05
0.000663615
0.00122036
0.00162004
0.00189873
0.00210263
0.00226465
0.00240629
0.00254075
0.00267558
0.00281386
0.00295694
0.00310346
0.00325267
0.00340479
0.00355867
0.00371434
0.00387551
0.00403729
0.00419867
0.00435957
0.00451955
0.00467851
0.00483585
0.00498891
0.00514045
0.00529474
0.00545393
0.00561878
0.00579089
0.0059715
0.006162
0.00636261
0.00657245
0.00678903
0.00701557
0.00725312
0.00750194
0.0077619
0.00803265
0.00831368
0.00860439
0.00890409
0.00921207
0.00952756
0.00984978
0.0101779
0.0105112
0.0108487
0.0111898
0.0115334
0.0118787
0.0122249
0.0125711
0.0129163
0.0132597
0.0136005
0.0139379
0.0142709
0.0145991
0.0149215
0.0152375
0.0155463
0.0158475
0.0161405
0.0164248
0.0166997
0.0169649
0.0172196
0.0174636
0.0176965
0.0179167
0.0181222
0.0183182
0.0184998
0.0186697
0.0188393
0.018991
0.0191259
0.0192485
0.0193586
0.0194562
0.0195415
0.0196147
0.0196761
0.0197258
0.0197641
0.0197914
0.0198078
0.0198136
0.0198091
0.0197944
0.01977
0.019736
0.0196934
0.0196425
0.0195858
0.0195251
0.019456
0.0194034
7.48096e-05
0.000648312
0.00120247
0.00160484
0.00188727
0.0020933
0.00225353
0.00238812
0.00250853
0.0026231
0.00273646
0.00285033
0.00296758
0.00308637
0.00320442
0.00332045
0.00343383
0.00354398
0.00365142
0.00375605
0.00385715
0.00395176
0.00404647
0.00414422
0.00424823
0.00436073
0.00448388
0.00461912
0.00476705
0.00492826
0.00510291
0.00529088
0.00549165
0.00570193
0.005923
0.00615636
0.00640221
0.00666024
0.00692992
0.0072106
0.00750153
0.00780196
0.00811112
0.00842821
0.00875246
0.0090831
0.00941933
0.00976041
0.0101056
0.0104541
0.0108051
0.0111578
0.0115115
0.0118652
0.0122181
0.0125694
0.0129183
0.0132641
0.0136058
0.0139429
0.0142746
0.0146001
0.0149188
0.0152303
0.0155338
0.015829
0.0161151
0.016392
0.0166585
0.0169148
0.0171598
0.0173905
0.0176125
0.0178217
0.0180154
0.0182012
0.018385
0.0185492
0.018699
0.0188364
0.0189615
0.0190743
0.019175
0.0192637
0.0193406
0.019406
0.0194601
0.0195029
0.0195347
0.0195558
0.0195664
0.0195666
0.0195567
0.0195368
0.0195077
0.0194695
0.0194247
0.0193748
0.0193152
0.0192754
7.41914e-05
0.000631996
0.001174
0.00156572
0.00183497
0.00202787
0.00217044
0.00228301
0.00238148
0.00247026
0.0025524
0.00262966
0.00270092
0.00276558
0.00282566
0.00288003
0.00292829
0.00296643
0.00300108
0.00303737
0.00307879
0.003129
0.00319028
0.00326527
0.00335616
0.00346442
0.00359011
0.00373259
0.00389133
0.00406555
0.00425427
0.00445589
0.00466663
0.00488581
0.00511801
0.00536224
0.00561795
0.0058846
0.00616161
0.00644837
0.00674424
0.00704858
0.00736075
0.0076801
0.008006
0.00833782
0.00867488
0.00901656
0.00936228
0.00971137
0.0100631
0.0104167
0.0107716
0.0111268
0.0114816
0.0118353
0.0121872
0.0125364
0.0128818
0.0132235
0.0135603
0.0138912
0.0142159
0.0145337
0.0148429
0.0151445
0.0154372
0.0157217
0.015996
0.0162601
0.0165123
0.0167556
0.016988
0.0172079
0.0174115
0.017612
0.0178081
0.0179847
0.0181485
0.0183001
0.0184396
0.0185671
0.0186826
0.0187863
0.0188784
0.0189592
0.0190287
0.0190875
0.0191354
0.0191727
0.0191994
0.0192156
0.0192213
0.0192167
0.0192022
0.0191778
0.0191456
0.0191072
0.0190573
0.0190302
7.34475e-05
0.000612629
0.00113009
0.00148706
0.00172842
0.00190041
0.00201399
0.00209179
0.00214583
0.00218226
0.00220435
0.00221779
0.00222182
0.00221519
0.00219642
0.00217618
0.00215902
0.0021498
0.00215346
0.00217393
0.00221373
0.0022749
0.00235671
0.00245806
0.00257731
0.00271562
0.00287013
0.00303828
0.00321966
0.00341288
0.00361458
0.00382072
0.00403578
0.00426176
0.0044979
0.00474367
0.00499874
0.00526281
0.00553556
0.00581668
0.00610576
0.00640242
0.00670625
0.00701684
0.00733374
0.00765649
0.00798452
0.0083174
0.00865469
0.00899584
0.00934009
0.00968686
0.0100356
0.0103855
0.0107354
0.0110852
0.011434
0.011781
0.0121244
0.0124639
0.0127988
0.0131287
0.0134531
0.0137735
0.0140864
0.014393
0.0146911
0.0149823
0.0152617
0.015533
0.0157954
0.0160475
0.0162894
0.0165189
0.0167318
0.0169456
0.0171516
0.0173392
0.017515
0.0176793
0.0178317
0.0179725
0.0181017
0.0182195
0.0183259
0.0184212
0.0185055
0.018579
0.0186418
0.018694
0.0187357
0.0187668
0.0187873
0.0187972
0.0187968
0.0187858
0.0187662
0.0187391
0.0186994
0.0186835
7.26603e-05
0.000587478
0.00106283
0.00136647
0.00154815
0.00169146
0.00174071
0.00174726
0.00172829
0.00169008
0.00163624
0.00157257
0.00150748
0.00144574
0.0013984
0.0013723
0.0013704
0.0013949
0.00144532
0.0015188
0.00161298
0.00172905
0.00186163
0.00200654
0.00216004
0.00232744
0.00250265
0.00268324
0.00286417
0.00305036
0.00324372
0.00344561
0.00365468
0.00387122
0.00409534
0.00432708
0.00456648
0.00481358
0.00506835
0.00533072
0.00560052
0.00587756
0.00616167
0.00645262
0.00675013
0.00705393
0.00736346
0.00767854
0.00799884
0.00832388
0.00865282
0.00898526
0.00932076
0.00965841
0.00999682
0.010335
0.0106728
0.0110097
0.0113465
0.0116813
0.0120125
0.0123398
0.0126626
0.0129821
0.0132935
0.0136005
0.0138991
0.0141898
0.0144739
0.014749
0.0150158
0.0152729
0.0155209
0.0157564
0.0159768
0.0162005
0.0164137
0.0166105
0.0167963
0.0169712
0.0171355
0.0172886
0.0174306
0.0175615
0.0176814
0.0177904
0.0178887
0.0179765
0.0180537
0.0181205
0.0181769
0.0182227
0.0182579
0.0182822
0.0182958
0.0182983
0.0182912
0.0182755
0.0182457
0.0182401
7.18288e-05
0.000567197
0.000975766
0.00117642
0.00121805
0.00136801
0.0012946
0.00120598
0.00111398
0.00101017
0.000913294
0.000845802
0.00080908
0.000802799
0.000829897
0.000886087
0.000968503
0.0010761
0.00120104
0.00133528
0.00147615
0.00163097
0.0017897
0.00194888
0.00210492
0.00225913
0.00241586
0.00257729
0.00274463
0.00291655
0.00309323
0.00327538
0.00346318
0.00365695
0.00385704
0.00406374
0.00427731
0.00449796
0.00472584
0.00496101
0.00520342
0.00545305
0.00570993
0.00597397
0.00624504
0.00652298
0.00680723
0.00709794
0.00739489
0.00769756
0.00800495
0.00831619
0.00863091
0.0089486
0.00927008
0.00959373
0.00991853
0.010244
0.0105688
0.0108932
0.0112145
0.0115331
0.0118487
0.0121629
0.0124681
0.01277
0.0130665
0.0133558
0.0136386
0.0139138
0.0141822
0.0144426
0.0146953
0.0149348
0.0151634
0.0153939
0.0156128
0.0158176
0.0160122
0.0161958
0.0163683
0.0165304
0.0166821
0.0168233
0.0169541
0.0170746
0.0171848
0.017285
0.0173752
0.0174552
0.0175251
0.0175846
0.0176334
0.0176714
0.0176981
0.017713
0.0177173
0.0177115
0.0176898
0.0176919
7.37833e-05
0.000573031
0.00086949
0.000890905
0.000521924
0.000896468
0.00068688
0.000563485
0.000487131
0.000445944
0.000443378
0.000481497
0.000551935
0.000655041
0.000779151
0.000911597
0.00105284
0.00120561
0.00135794
0.00150307
0.00164215
0.00177467
0.00190683
0.00203959
0.00217685
0.00231475
0.00245348
0.00259488
0.00273965
0.00288806
0.00304045
0.00319733
0.00335914
0.00352629
0.00369914
0.00387804
0.00406328
0.00425516
0.00445388
0.00465955
0.00487217
0.00509192
0.00531899
0.00555338
0.00579508
0.00604407
0.00629966
0.00656192
0.0068307
0.00710564
0.00738708
0.00767469
0.00796733
0.00826431
0.008565
0.00886871
0.00917484
0.00948301
0.00979159
0.0101012
0.0104079
0.0107138
0.0110182
0.0113214
0.0116203
0.0119159
0.0122073
0.0124931
0.0127732
0.0130469
0.0133122
0.0135696
0.0138209
0.0140581
0.0142895
0.014521
0.0147403
0.0149485
0.0151471
0.015336
0.0155153
0.015685
0.0158449
0.0159949
0.0161353
0.0162659
0.0163868
0.0164982
0.0166
0.0166922
0.0167744
0.0168466
0.0169082
0.0169589
0.016998
0.0170247
0.0170399
0.0170435
0.01703
0.0170376
7.08004e-05
0.000994471
0.00084235
0.000709921
0.000100461
0.000317971
0.000228208
0.00023244
0.000277611
0.00036421
0.000483783
0.000615468
0.000754233
0.000910039
0.00106135
0.00119907
0.0013285
0.00144618
0.00156187
0.0016779
0.00179511
0.00191082
0.00202581
0.00213986
0.0022564
0.00237261
0.00248978
0.00261016
0.00273307
0.00285917
0.0029889
0.00312269
0.00326102
0.0034042
0.00355255
0.00370636
0.00386594
0.00403156
0.00420342
0.0043816
0.00456614
0.00475728
0.0049551
0.00515981
0.00537156
0.0055903
0.00581716
0.00605166
0.00629348
0.00654215
0.00679719
0.00705841
0.00732541
0.00759764
0.00787449
0.00815533
0.00843977
0.00872747
0.00901775
0.00931011
0.00960222
0.00989413
0.0101854
0.0104749
0.0107603
0.0110426
0.0113217
0.0115965
0.0118666
0.0121315
0.0123909
0.0126434
0.0128915
0.0131253
0.0133575
0.0135881
0.0138067
0.0140164
0.0142174
0.0144097
0.0145932
0.014768
0.0149338
0.0150905
0.0152382
0.0153768
0.0155064
0.0156271
0.0157388
0.0158414
0.0159345
0.016018
0.0160909
0.0161532
0.0162035
0.016241
0.016266
0.0162778
0.0162719
0.016282
7.0987e-05
6.90502e-05
3.97866e-06
9.39731e-05
6.48692e-05
0.000158525
0.000244991
0.000365164
0.000499932
0.000656219
0.000812578
0.000943998
0.00106443
0.00117126
0.0012733
0.00137653
0.00147985
0.00157718
0.00167557
0.00177269
0.00187
0.00196712
0.00206425
0.00216113
0.002259
0.00235801
0.00245837
0.00256109
0.00266645
0.00277495
0.00288685
0.0030025
0.00312221
0.00324615
0.00337456
0.00350765
0.0036457
0.00378891
0.00393737
0.00409141
0.00425154
0.00441782
0.00459041
0.00476958
0.00495557
0.0051485
0.00534842
0.00555592
0.00577068
0.00599262
0.00622164
0.00645732
0.0066993
0.00694713
0.00720031
0.0074583
0.00772023
0.00798438
0.00825115
0.00852047
0.00879094
0.00906207
0.00933327
0.00960445
0.00987416
0.0101419
0.0104073
0.0106697
0.0109286
0.0111832
0.0114337
0.0116781
0.0119199
0.0121475
0.0123769
0.0126034
0.0128192
0.0130273
0.0132278
0.0134206
0.0136058
0.013783
0.0139522
0.0141131
0.0142658
0.0144102
0.0145463
0.0146743
0.014794
0.0149052
0.0150074
0.0151006
0.0151833
0.0152558
0.0153158
0.0153629
0.0153965
0.0154152
0.0154163
0.0154251
7.13664e-05
3.26459e-05
3.96538e-05
0.000163563
0.00022265
0.000413562
0.000562593
0.000699602
0.000815699
0.000917628
0.00100438
0.00108212
0.00116636
0.0012491
0.0013308
0.00141217
0.00149474
0.00157672
0.00165864
0.00174065
0.00182328
0.00190611
0.00198919
0.00207262
0.00215717
0.00224343
0.00233159
0.00242216
0.00251543
0.00261181
0.00271128
0.00281417
0.0029207
0.00303082
0.00314477
0.00326272
0.00338492
0.00351147
0.00364241
0.00377795
0.00391831
0.00406398
0.00421525
0.00437249
0.004536
0.00470598
0.00488272
0.00506562
0.00525502
0.00545104
0.00565365
0.00586265