/*--------------------------------*- C++ -*----------------------------------*\
| =========                 |                                                 |
| \\      /  F ield         | OpenFOAM: The Open Source CFD Toolbox           |
|  \\    /   O peration     | Version:  5.x                                   |
|   \\  /    A nd           | Web:      www.OpenFOAM.org                      |
|    \\/     M anipulation  |                                                 |
\*---------------------------------------------------------------------------*/
FoamFile
{
    version     2.0;
    format      ascii;
    class       volVectorField;
    location    "239";
    object      U;
}
// * * * * * * * * * * * * * * * * * * * * * * * * * * * * * * * * * * * * * //

dimensions      [0 1 -1 0 0 0 0];

internalField   nonuniform List<vector> 
5760
(
(39.9332 -0.796109 0)
(39.8363 -0.845033 0)
(39.704 -0.658768 0)
(39.5354 -0.490451 0)
(39.3593 -0.365039 0)
(39.1906 -0.274974 0)
(39.0336 -0.209659 0)
(38.8878 -0.161648 0)
(38.7545 -0.125217 0)
(38.6321 -0.0975379 0)
(38.5217 -0.0757681 0)
(38.4202 -0.0589415 0)
(38.3292 -0.0455983 0)
(38.2459 -0.0351373 0)
(38.1708 -0.0265016 0)
(38.1056 -0.0208766 0)
(38.034 -0.00966623 0)
(38.0077 -0.0276461 0)
(40.03 0.223515 0)
(40.1162 0.426142 0)
(40.1692 0.439541 0)
(40.198 0.392035 0)
(40.2226 0.33791 0)
(40.2469 0.289398 0)
(40.2658 0.247576 0)
(40.2788 0.213309 0)
(40.285 0.185022 0)
(40.2871 0.162073 0)
(40.2842 0.142741 0)
(40.2788 0.126781 0)
(40.2695 0.113035 0)
(40.2592 0.101532 0)
(40.2458 0.0910532 0)
(40.2331 0.0833168 0)
(40.2183 0.0726894 0)
(40.2129 0.0763452 0)
(39.995 0.0316283 0)
(39.9933 -0.00366447 0)
(40.0047 -0.0601686 0)
(40.0236 -0.0851612 0)
(40.0452 -0.0835161 0)
(40.0671 -0.0725602 0)
(40.0872 -0.0595954 0)
(40.1048 -0.0470899 0)
(40.1201 -0.0353953 0)
(40.1336 -0.0252809 0)
(40.1456 -0.0165132 0)
(40.1562 -0.00924343 0)
(40.1657 -0.0030927 0)
(40.1742 0.00192114 0)
(40.182 0.0059421 0)
(40.1895 0.00909412 0)
(40.1965 0.0108852 0)
(40.2051 0.0116586 0)
(39.9955 -0.00226777 0)
(39.9914 0.00350172 0)
(40.0039 0.0205937 0)
(40.0192 0.0431724 0)
(40.0308 0.0614077 0)
(40.0401 0.0714161 0)
(40.0491 0.0749158 0)
(40.0577 0.0750141 0)
(40.0662 0.0733811 0)
(40.0745 0.0709327 0)
(40.0828 0.0679965 0)
(40.0911 0.0649111 0)
(40.0993 0.0617224 0)
(40.1074 0.058544 0)
(40.1155 0.0551996 0)
(40.1237 0.0517537 0)
(40.1317 0.0473968 0)
(40.1398 0.042443 0)
(39.9985 2.23537e-05 0)
(39.9991 0.0167548 0)
(40.0083 0.0300814 0)
(40.0177 0.0335479 0)
(40.024 0.0316377 0)
(40.0299 0.0282051 0)
(40.0366 0.0249865 0)
(40.0439 0.0226314 0)
(40.0511 0.0211855 0)
(40.0581 0.020366 0)
(40.0652 0.0199007 0)
(40.0722 0.019581 0)
(40.0792 0.0192693 0)
(40.0862 0.0188423 0)
(40.0931 0.0181397 0)
(40.1 0.0170454 0)
(40.1068 0.0151977 0)
(40.1133 0.01264 0)
(39.9997 0.00276853 0)
(40.0013 0.0145449 0)
(40.0074 0.0216761 0)
(40.0149 0.0233598 0)
(40.0217 0.024643 0)
(40.0284 0.0270268 0)
(40.0355 0.0295448 0)
(40.0425 0.0315154 0)
(40.049 0.0328511 0)
(40.0553 0.0336062 0)
(40.0614 0.0338244 0)
(40.0674 0.0335614 0)
(40.0734 0.0328683 0)
(40.0793 0.0317742 0)
(40.0852 0.0302524 0)
(40.0909 0.0282766 0)
(40.0964 0.0257154 0)
(40.1015 0.0227019 0)
(40 0.00313521 0)
(40.0016 0.0110347 0)
(40.0064 0.0171429 0)
(40.0132 0.0207013 0)
(40.02 0.0233528 0)
(40.0264 0.0254294 0)
(40.0327 0.0264508 0)
(40.0388 0.0264351 0)
(40.0448 0.0257878 0)
(40.0507 0.0248227 0)
(40.0565 0.0236664 0)
(40.0623 0.022357 0)
(40.068 0.0209013 0)
(40.0736 0.0192833 0)
(40.0791 0.0174587 0)
(40.0845 0.0153866 0)
(40.0895 0.0130136 0)
(40.0942 0.0103884 0)
(40.0001 0.00281951 0)
(40.0018 0.00887339 0)
(40.0059 0.0142229 0)
(40.0117 0.017714 0)
(40.0178 0.0197197 0)
(40.0236 0.0208633 0)
(40.0295 0.0213818 0)
(40.0354 0.021441 0)
(40.0413 0.0212305 0)
(40.0472 0.020852 0)
(40.0529 0.0203062 0)
(40.0586 0.0195641 0)
(40.0641 0.0186035 0)
(40.0695 0.0174096 0)
(40.0747 0.015967 0)
(40.0797 0.0142753 0)
(40.0843 0.0123301 0)
(40.0886 0.0102406 0)
(40.0002 0.002372 0)
(40.0018 0.00713506 0)
(40.0053 0.011348 0)
(40.0103 0.0142016 0)
(40.0157 0.0158275 0)
(40.0212 0.0167769 0)
(40.0268 0.0172958 0)
(40.0324 0.0174037 0)
(40.0381 0.0171285 0)
(40.0437 0.0165281 0)
(40.0492 0.0156476 0)
(40.0545 0.0145131 0)
(40.0598 0.0131466 0)
(40.0648 0.0115658 0)
(40.0698 0.00978971 0)
(40.0745 0.00784061 0)
(40.0789 0.00575058 0)
(40.083 0.0036025 0)
(40.0002 0.00180604 0)
(40.0017 0.00528712 0)
(40.0046 0.00829641 0)
(40.0089 0.0104193 0)
(40.0137 0.0116691 0)
(40.0188 0.0123224 0)
(40.024 0.0125381 0)
(40.0293 0.012355 0)
(40.0346 0.0118271 0)
(40.0399 0.0110401 0)
(40.0451 0.0100677 0)
(40.0502 0.00895345 0)
(40.0552 0.00772166 0)
(40.06 0.00638894 0)
(40.0647 0.00496725 0)
(40.0691 0.00347446 0)
(40.0733 0.00190885 0)
(40.0773 0.000382122 0)
(40.0002 0.00106865 0)
(40.0014 0.00306202 0)
(40.0039 0.00471865 0)
(40.0075 0.00584489 0)
(40.0117 0.00640563 0)
(40.0162 0.00650574 0)
(40.0209 0.00623878 0)
(40.0258 0.0056457 0)
(40.0307 0.00474928 0)
(40.0357 0.00358031 0)
(40.0407 0.00216846 0)
(40.0457 0.00054214 0)
(40.0505 -0.00127066 0)
(40.0552 -0.00323413 0)
(40.0598 -0.00530803 0)
(40.0641 -0.00744585 0)
(40.0683 -0.00959439 0)
(40.0721 -0.0117363 0)
(40.0001 0.000180778 0)
(40.0012 0.000454094 0)
(40.0032 0.000550499 0)
(40.0062 0.000371395 0)
(40.0098 -0.000102535 0)
(40.0137 -0.000802259 0)
(40.0179 -0.00162686 0)
(40.0221 -0.00249034 0)
(40.0263 -0.00333857 0)
(40.0305 -0.00414526 0)
(40.0346 -0.00490503 0)
(40.0386 -0.00562469 0)
(40.0426 -0.0063178 0)
(40.0465 -0.00699808 0)
(40.0503 -0.00768044 0)
(40.0542 -0.00836674 0)
(40.058 -0.00909604 0)
(40.0617 -0.00970871 0)
(40.0001 -0.000846358 0)
(40.001 -0.00257933 0)
(40.0027 -0.00437582 0)
(40.0052 -0.00623107 0)
(40.0083 -0.0081488 0)
(40.0122 -0.0102398 0)
(40.0166 -0.0126616 0)
(40.0215 -0.0155085 0)
(40.0267 -0.018779 0)
(40.0322 -0.0224079 0)
(40.0376 -0.026305 0)
(40.043 -0.0303771 0)
(40.0482 -0.0345357 0)
(40.0532 -0.0386996 0)
(40.0579 -0.0427944 0)
(40.0623 -0.0467581 0)
(40.0663 -0.0505172 0)
(40.0699 -0.0540884 0)
(40.0001 -0.00167744 0)
(40.0007 -0.00504774 0)
(40.0022 -0.0086981 0)
(40.0045 -0.0125574 0)
(40.0072 -0.0161466 0)
(40.0095 -0.0189926 0)
(40.0113 -0.0208839 0)
(40.0127 -0.0218787 0)
(40.0142 -0.0221843 0)
(40.0158 -0.0220324 0)
(40.0177 -0.0216133 0)
(40.02 -0.0210668 0)
(40.0227 -0.0204933 0)
(40.0257 -0.0199661 0)
(40.0291 -0.0195426 0)
(40.033 -0.0192607 0)
(40.0373 -0.019206 0)
(40.0421 -0.0192552 0)
(40.0001 -0.00209819 0)
(40.0001 -0.00659365 0)
(40.0004 -0.0106657 0)
(40.0025 -0.0145965 0)
(40.0069 -0.0197004 0)
(40.0129 -0.0266324 0)
(40.0198 -0.0349088 0)
(40.0266 -0.0436641 0)
(40.0331 -0.0522769 0)
(40.0389 -0.0604443 0)
(40.0443 -0.0680371 0)
(40.0492 -0.075004 0)
(40.0537 -0.0813419 0)
(40.0577 -0.0870832 0)
(40.0614 -0.0922744 0)
(40.0646 -0.0969698 0)
(40.0673 -0.101158 0)
(40.0694 -0.105002 0)
(39.9999 -0.000798366 0)
(40.0002 -0.00957025 0)
(40.0016 -0.0185617 0)
(40.002 -0.0207826 0)
(40.0003 -0.0166668 0)
(39.9982 -0.00992005 0)
(39.9976 -0.00328718 0)
(39.9988 0.00210209 0)
(40.0013 0.00597836 0)
(40.0046 0.00837136 0)
(40.0085 0.00942959 0)
(40.0128 0.0093506 0)
(40.0173 0.00834789 0)
(40.0221 0.00662236 0)
(40.027 0.00435357 0)
(40.0321 0.00170296 0)
(40.0376 -0.00126147 0)
(40.0436 -0.0043018 0)
(39.9963 0.00564375 0)
(39.9887 0.00080715 0)
(39.9953 -0.0223864 0)
(40.0101 -0.0540886 0)
(40.0224 -0.0841198 0)
(40.0294 -0.107636 0)
(40.0331 -0.124435 0)
(40.0354 -0.136043 0)
(40.0373 -0.144012 0)
(40.0389 -0.149361 0)
(40.0404 -0.15285 0)
(40.0421 -0.154997 0)
(40.044 -0.156251 0)
(40.0461 -0.156885 0)
(40.0483 -0.157137 0)
(40.0505 -0.157106 0)
(40.0527 -0.156905 0)
(40.0543 -0.156533 0)
(39.9916 -0.00745771 0)
(39.964 0.0295209 0)
(39.9458 0.0852099 0)
(39.9442 0.123333 0)
(39.9535 0.138368 0)
(39.9668 0.138921 0)
(39.9805 0.132895 0)
(39.9936 0.123408 0)
(40.006 0.112091 0)
(40.0178 0.0997432 0)
(40.0291 0.0872408 0)
(40.0401 0.0748305 0)
(40.0507 0.0628204 0)
(40.0612 0.0511732 0)
(40.0714 0.0400142 0)
(40.0817 0.0293569 0)
(40.0923 0.0193143 0)
(40.1023 0.0107996 0)
(40.014 -0.140008 0)
(40.051 -0.323486 0)
(40.0757 -0.383382 0)
(40.0918 -0.37963 0)
(40.1156 -0.358634 0)
(40.1509 -0.334763 0)
(40.1934 -0.311691 0)
(40.2384 -0.290291 0)
(40.2846 -0.271636 0)
(40.3308 -0.255508 0)
(40.3771 -0.241761 0)
(40.4225 -0.229904 0)
(40.4671 -0.219812 0)
(40.5103 -0.211221 0)
(40.5524 -0.204119 0)
(40.593 -0.198614 0)
(40.6348 -0.194918 0)
(40.6735 -0.194436 0)
(39.9804 0.517961 0)
(39.9928 0.642413 0)
(39.9687 0.528868 0)
(39.8889 0.410943 0)
(39.7723 0.317864 0)
(39.6386 0.245486 0)
(39.4947 0.188672 0)
(39.3435 0.142872 0)
(39.1869 0.104988 0)
(39.0272 0.072905 0)
(38.8656 0.0453616 0)
(38.7031 0.0214434 0)
(38.5401 0.000505 0)
(38.3775 -0.0180062 0)
(38.2154 -0.0345268 0)
(38.054 -0.0497622 0)
(37.8912 -0.0641388 0)
(37.7297 -0.0803405 0)
(0.101428 -0.0854891 0)
(0.161113 -0.111255 1.75771e-18)
(0.248612 -0.111846 0)
(0.324563 -0.118387 -1.71575e-18)
(0.386303 -0.112379 0)
(0.424245 -0.0575646 0)
(0.415558 -0.0170965 0)
(0.382646 0.0121274 0)
(0.332757 0.0312318 6.70858e-18)
(0.270844 0.0444314 0)
(0.197714 0.0574778 0)
(0.109909 0.0745113 0)
(0.00198049 0.0925782 0)
(-0.130515 0.104796 -7.44803e-18)
(-0.291997 0.116368 0)
(-0.48653 0.131092 0)
(-0.714179 0.147186 3.55173e-18)
(-0.972066 0.162181 0)
(-1.25519 0.174286 2.43129e-18)
(-1.55749 0.182615 2.07656e-18)
(-1.87275 0.187056 0)
(-2.19506 0.187933 0)
(-2.5199 0.186133 0)
(-2.8437 0.182464 0)
(-3.16412 0.177682 0)
(-3.47981 0.172388 0)
(-3.79016 0.16701 1.03524e-18)
(-4.0951 0.161819 0)
(-4.39491 0.156956 0)
(-4.68999 0.152471 -1.74285e-18)
(-4.9808 0.148349 0)
(-5.26776 0.144538 0)
(-5.55118 0.140964 0)
(-5.83126 0.137545 0)
(-6.10805 0.134198 1.4052e-18)
(-6.38143 0.130845 1.35521e-18)
(-6.65119 0.127415 1.30917e-18)
(-6.91694 0.123845 0)
(-7.17819 0.120084 1.22686e-18)
(-7.43434 0.11609 0)
(-7.6847 0.111832 0)
(-7.92849 0.107287 0)
(-8.1649 0.102444 0)
(-8.39306 0.0972941 0)
(-8.61205 0.0918405 1.0327e-18)
(-8.82097 0.0860874 -1.00529e-18)
(-9.01888 0.080046 9.78735e-19)
(-9.20488 0.0737266 0)
(-9.37805 0.0671411 0)
(-9.53749 0.0602938 0)
(-9.68233 0.0531803 0)
(-9.81168 0.0457759 0)
(-9.92462 0.0380276 0)
(-10.0201 0.0298492 0)
(-10.0971 0.0211659 0)
(-10.1542 0.0120927 0)
(-10.1896 0.00321184 1.45764e-18)
(-10.2016 -0.00460556 1.40501e-18)
(-10.1946 -0.0114662 1.35067e-18)
(-10.1696 -0.0180832 -1.29477e-18)
(-10.1263 -0.0246323 0)
(-10.0647 -0.0311032 0)
(-9.9846 -0.0374827 -1.11595e-18)
(-9.88599 -0.0437476 -1.05218e-18)
(-9.76891 -0.0498794 0)
(-9.63346 -0.0558566 0)
(-9.47981 -0.0616611 8.46718e-19)
(-9.30821 -0.0672727 0)
(-9.11896 -0.072672 0)
(-8.91246 -0.0778411 0)
(-8.68916 -0.0827629 0)
(-8.44962 -0.0874265 0)
(-8.19447 -0.0918214 3.61396e-19)
(-7.92434 -0.0959528 2.69401e-19)
(-7.63987 -0.0998327 0)
(-7.34195 -0.103442 7.45671e-20)
(-7.03126 -0.10683 0)
(-6.7083 -0.110035 0)
(-6.37386 -0.112972 0)
(-6.02877 -0.115627 -7.28032e-19)
(-5.67395 -0.118036 0)
(-5.31026 -0.120213 1.22406e-18)
(-4.93857 -0.122178 0)
(-4.55969 -0.123945 1.76572e-18)
(-4.17443 -0.125536 -2.05591e-18)
(-3.78354 -0.126967 0)
(-3.38773 -0.128266 0)
(-2.98764 -0.129455 0)
(-2.58383 -0.13057 0)
(-2.17675 -0.131644 0)
(-1.76673 -0.132728 0)
(-1.354 -0.133848 4.57436e-18)
(-0.938506 -0.135128 0)
(-0.520857 -0.13647 -5.51192e-18)
(-0.098672 -0.137322 0)
(0.319549 -0.13436 -6.08066e-18)
(0.752524 -0.131411 0)
(1.15181 -0.121653 0)
(1.61554 -0.119202 0)
(1.81556 -0.0496373 0)
(0.0910159 -0.202123 -4.71941e-18)
(0.151367 -0.185067 -4.17634e-18)
(0.209906 -0.137643 0)
(0.235845 -0.0890521 1.17752e-18)
(0.229198 -0.0417574 0)
(0.20229 0.00682231 0)
(0.161531 0.050334 5.54826e-18)
(0.10158 0.0852039 0)
(0.0193221 0.112746 2.88869e-18)
(-0.0871722 0.138371 0)
(-0.220064 0.168014 4.88149e-18)
(-0.38277 0.204584 0)
(-0.578621 0.246344 0)
(-0.806392 0.289742 1.72101e-18)
(-1.06256 0.33328 -3.04859e-18)
(-1.34297 0.374465 0)
(-1.64173 0.409837 -3.62086e-18)
(-1.95209 0.436823 2.16569e-18)
(-2.26766 0.454318 -2.94081e-18)
(-2.58307 0.462577 -2.68399e-18)
(-2.89424 0.462972 0)
(-3.19882 0.457388 0)
(-3.4955 0.447464 -1.42491e-18)
(-3.78393 0.434937 1.33857e-18)
(-4.06443 0.421169 0)
(-4.33764 0.407149 -1.1992e-18)
(-4.60435 0.39352 5.70103e-19)
(-4.86535 0.380637 0)
(-5.12135 0.368642 0)
(-5.37292 0.357526 -1.00223e-18)
(-5.6205 0.347191 0)
(-5.86436 0.337484 1.86393e-18)
(-6.10463 0.328233 0)
(-6.34129 0.319259 0)
(-6.57422 0.310392 -8.44693e-19)
(-6.80315 0.301475 -8.18694e-19)
(-7.02774 0.292373 7.90329e-19)
(-7.24757 0.28297 0)
(-7.46211 0.273172 7.45235e-19)
(-7.67079 0.262908 0)
(-7.87299 0.252127 0)
(-8.06803 0.240797 0)
(-8.25521 0.228903 0)
(-8.43382 0.216446 -1.29879e-18)
(-8.60313 0.203438 6.30258e-19)
(-8.76239 0.189903 6.15331e-19)
(-8.91088 0.175874 5.95822e-19)
(-9.04788 0.161387 1.15982e-18)
(-9.17267 0.146487 -1.12603e-18)
(-9.28458 0.131213 0)
(-9.38295 0.115607 0)
(-9.46716 0.0996987 0)
(-9.53667 0.0835086 0)
(-9.59101 0.0670208 -1.91243e-18)
(-9.62998 0.0501814 1.84277e-18)
(-9.65383 0.0330155 0)
(-9.66358 0.0159584 -8.49638e-19)
(-9.66079 -8.31837e-05 8.13447e-19)
(-9.64212 -0.0150264 7.75495e-19)
(-9.606 -0.0295027 7.34139e-19)
(-9.55214 -0.0436885 0)
(-9.48033 -0.057561 0)
(-9.39047 -0.0710838 6.13448e-19)
(-9.2825 -0.084207 -5.77256e-19)
(-9.15647 -0.0968884 0)
(-9.01246 -0.109083 0)
(-8.85065 -0.120755 -4.44243e-19)
(-8.67128 -0.131863 0)
(-8.47464 -0.142374 0)
(-8.2611 -0.152251 0)
(-8.0311 -0.16146 0)
(-7.78516 -0.16998 -4.50629e-19)
(-7.5239 -0.17779 -1.74857e-19)
(-7.24793 -0.184913 -3.9534e-19)
(-6.9579 -0.191388 0)
(-6.65466 -0.197135 -3.51671e-20)
(-6.33893 -0.202191 0)
(-6.01115 -0.206745 0)
(-5.67216 -0.210691 0)
(-5.32267 -0.213936 3.07138e-19)
(-4.96358 -0.216529 0)
(-4.59572 -0.218516 -4.96587e-19)
(-4.21992 -0.219938 0)
(-3.83698 -0.220833 6.63302e-19)
(-3.44766 -0.221248 7.79961e-19)
(-3.05269 -0.221225 0)
(-2.65275 -0.220821 0)
(-2.24846 -0.22009 0)
(-1.84036 -0.219102 -2.28546e-18)
(-1.42889 -0.217923 0)
(-1.01432 -0.216639 0)
(-0.596892 -0.215295 1.40737e-18)
(-0.176465 -0.214021 0)
(0.246421 -0.212621 -1.55951e-18)
(0.673854 -0.211122 0)
(1.10042 -0.20775 -1.63794e-18)
(1.53777 -0.204908 -3.37044e-18)
(1.9521 -0.194484 -3.4412e-18)
(2.40901 -0.185367 0)
(2.69957 -0.0984174 0)
(0.069247 -0.321822 3.81583e-18)
(0.0953279 -0.266909 -2.53794e-18)
(0.110808 -0.168566 0)
(0.0966141 -0.0825388 -4.01818e-18)
(0.0573919 -0.00700222 0)
(-0.00107862 0.0624887 0)
(-0.076127 0.12539 -3.54165e-18)
(-0.16982 0.182467 0)
(-0.285828 0.235811 -3.10441e-18)
(-0.427746 0.289233 0)
(-0.597568 0.346513 -2.64003e-18)
(-0.795199 0.408973 0)
(-1.0184 0.474929 0)
(-1.2625 0.540652 0)
(-1.52141 0.601617 5.43002e-18)
(-1.78862 0.653369 0)
(-2.05832 0.692625 4.52414e-18)
(-2.3261 0.717928 -1.38632e-18)
(-2.58916 0.729648 1.28125e-18)
(-2.84611 0.729526 1.191e-18)
(-3.09673 0.720062 0)
(-3.34123 0.70402 2.0906e-18)
(-3.58024 0.68394 2.95737e-18)
(-3.81466 0.661878 -9.33622e-19)
(-4.04522 0.63936 0)
(-4.27256 0.617394 2.53629e-18)
(-4.49719 0.596556 -8.08555e-19)
(-4.71947 0.577099 1.54782e-18)
(-4.93967 0.559042 0)
(-5.15793 0.542257 2.86005e-18)
(-5.3743 0.526531 0)
(-5.58877 0.511609 -1.32988e-18)
(-5.80123 0.497222 0)
(-6.0115 0.483108 0)
(-6.2193 0.46903 -1.19927e-18)
(-6.4243 0.454774 0)
(-6.62611 0.440156 -2.25263e-18)
(-6.82424 0.425023 0)
(-7.01817 0.409255 -2.15708e-21)
(-7.20732 0.39276 2.05271e-18)
(-7.39105 0.375477 0)
(-7.56869 0.35737 0)
(-7.73953 0.338427 1.8759e-18)
(-7.90286 0.318657 9.11816e-19)
(-8.05793 0.298088 -2.65029e-18)
(-8.204 0.27676 0)
(-8.34032 0.254731 8.28592e-19)
(-8.46616 0.232063 -8.04995e-19)
(-8.58082 0.208828 2.33515e-18)
(-8.68359 0.185101 1.50477e-18)
(-8.77384 0.160959 0)
(-8.85098 0.136484 0)
(-8.91449 0.111766 -1.35085e-18)
(-8.96398 0.0869162 2.59861e-18)
(-8.99921 0.0620912 -1.24711e-18)
(-9.02007 0.0375392 -1.19507e-18)
(-9.02639 0.0135495 0)
(-9.01765 -0.00984738 -2.17131e-18)
(-8.99262 -0.0328261 -1.02911e-18)
(-8.95075 -0.0554218 0)
(-8.89175 -0.0775648 0)
(-8.81541 -0.0991802 0)
(-8.72161 -0.120194 0)
(-8.61031 -0.140528 7.44974e-19)
(-8.48152 -0.160113 1.38206e-18)
(-8.33534 -0.178882 0)
(-8.17193 -0.196775 1.15108e-18)
(-7.9915 -0.213733 -1.03508e-18)
(-7.79436 -0.229705 0)
(-7.58085 -0.24464 0)
(-7.35138 -0.25849 0)
(-7.10643 -0.271217 2.7946e-19)
(-6.8466 -0.282791 4.54354e-19)
(-6.57247 -0.293237 5.02453e-19)
(-6.28469 -0.302591 2.24104e-19)
(-5.98409 -0.310788 0)
(-5.67128 -0.317906 0)
(-5.34681 -0.324147 0)
(-5.01147 -0.329401 0)
(-4.6659 -0.333559 3.36399e-19)
(-4.31097 -0.336682 4.45016e-19)
(-3.94747 -0.338834 0)
(-3.57619 -0.340085 -6.57911e-19)
(-3.1979 -0.340497 -7.75545e-19)
(-2.81334 -0.340139 0)
(-2.42321 -0.339083 0)
(-2.02816 -0.337414 0)
(-1.62879 -0.335218 1.16126e-18)
(-1.2256 -0.332599 1.26979e-18)
(-0.819013 -0.329661 0)
(-0.409293 -0.326527 0)
(0.00335318 -0.323286 -1.53674e-18)
(0.419091 -0.320099 0)
(0.837488 -0.316824 1.66064e-18)
(1.26017 -0.313635 0)
(1.68338 -0.30938 -1.74169e-18)
(2.11593 -0.305722 1.8159e-18)
(2.53116 -0.293514 1.86315e-18)
(2.98062 -0.279185 3.80816e-18)
(3.31537 -0.18507 0)
(0.061106 -0.392413 0)
(0.0241653 -0.275328 4.83077e-18)
(-0.000534292 -0.142296 0)
(-0.046828 -0.0306857 3.41939e-18)
(-0.110774 0.0666397 0)
(-0.190785 0.155373 -5.53227e-18)
(-0.287662 0.238361 -5.1476e-18)
(-0.403523 0.317977 0)
(-0.540849 0.396672 -4.47261e-18)
(-0.701178 0.476818 4.13951e-18)
(-0.883844 0.559467 3.81287e-18)
(-1.08581 0.643224 0)
(-1.30233 0.724399 0)
(-1.52797 0.798412 2.94426e-18)
(-1.75732 0.860928 -2.70457e-18)
(-1.98577 0.90877 0)
(-2.21023 0.940467 -4.60726e-18)
(-2.42925 0.956347 0)
(-2.64264 0.958204 0)
(-2.85107 0.948727 -1.8669e-18)
(-3.05552 0.930908 -1.75483e-18)
(-3.25709 0.907539 -1.65485e-18)
(-3.45668 0.881161 9.03085e-22)
(-3.65499 0.853661 0)
(-3.85245 0.826354 0)
(-4.04936 0.80007 -1.35529e-18)
(-4.24585 0.775244 -1.29729e-18)
(-4.44196 0.752009 -1.24442e-18)
(-4.63765 0.730298 0)
(-4.83282 0.709913 -3.45027e-18)
(-5.02734 0.690588 0)
(-5.22101 0.672015 0)
(-5.4136 0.653885 0)
(-5.60483 0.635899 0)
(-5.79437 0.617776 2.89339e-18)
(-5.98182 0.599266 0)
(-6.16675 0.580153 9.04501e-19)
(-6.34866 0.560254 -1.75078e-18)
(-6.527 0.539424 -2.54603e-18)
(-6.70116 0.517556 -1.64653e-18)
(-6.87052 0.494575 0)
(-7.03439 0.470441 0)
(-7.19206 0.445142 -1.50064e-18)
(-7.34281 0.418695 0)
(-7.48589 0.39114 2.81822e-18)
(-7.62057 0.362536 0)
(-7.74609 0.332963 -8.03997e-22)
(-7.86174 0.302511 0)
(-7.96681 0.271284 -4.57862e-22)
(-8.06062 0.239394 -2.38805e-18)
(-8.14254 0.206961 0)
(-8.21199 0.174115 0)
(-8.26846 0.140998 1.06767e-18)
(-8.31151 0.107772 -1.0254e-18)
(-8.34075 0.0746354 0)
(-8.35584 0.0418267 9.40376e-19)
(-8.35627 0.00955006 0)
(-8.34142 -0.0222203 8.51063e-19)
(-8.31067 -0.0535863 0)
(-8.26367 -0.0844877 0)
(-8.20017 -0.114791 0)
(-8.11997 -0.144376 0)
(-8.02296 -0.173132 -1.25271e-18)
(-7.90909 -0.200952 0)
(-7.77839 -0.22774 -1.06602e-18)
(-7.63092 -0.253403 0)
(-7.46685 -0.277857 5.53058e-21)
(-7.28639 -0.301026 7.92669e-19)
(-7.08981 -0.322838 0)
(-6.87746 -0.343229 -6.17871e-19)
(-6.64971 -0.362137 0)
(-6.40703 -0.379507 -4.39017e-19)
(-6.14996 -0.3953 -3.43617e-19)
(-5.87907 -0.409532 -2.55688e-19)
(-5.59501 -0.422233 -1.686e-19)
(-5.29859 -0.433349 8.9905e-20)
(-4.9903 -0.443012 0)
(-4.6708 -0.451421 0)
(-4.34079 -0.458473 0)
(-4.00093 -0.464041 -2.49739e-19)
(-3.652 -0.468191 3.14199e-19)
(-3.29478 -0.471009 0)
(-2.93001 -0.472584 4.84452e-19)
(-2.55844 -0.473005 0)
(-2.18076 -0.472365 0)
(-1.79766 -0.470763 -1.3946e-18)
(-1.40975 -0.468314 0)
(-1.01759 -0.465138 -8.43441e-19)
(-0.621673 -0.461377 0)
(-0.222374 -0.457179 -1.93516e-18)
(0.180053 -0.452713 -2.05037e-18)
(0.585435 -0.448128 2.14874e-18)
(0.993953 -0.443609 0)
(1.40525 -0.4391 -2.32719e-18)
(1.82072 -0.434721 0)
(2.23743 -0.429406 2.4993e-18)
(2.66283 -0.423952 0)
(3.07468 -0.409685 2.63017e-18)
(3.51781 -0.389689 -1.21632e-20)
(3.8753 -0.294663 -2.77636e-18)
(0.0221518 -0.416522 0)
(-0.0556769 -0.220217 0)
(-0.106703 -0.0727917 0)
(-0.176194 0.0522939 -5.67668e-18)
(-0.258199 0.165157 0)
(-0.353611 0.271056 2.12104e-21)
(-0.464496 0.373044 4.13896e-18)
(-0.592406 0.473156 0)
(-0.738096 0.572754 7.16965e-18)
(-0.900916 0.672239 -3.32137e-18)
(-1.07838 0.770432 -3.06791e-18)
(-1.26646 0.864332 0)
(-1.46043 0.949735 0)
(-1.65581 1.02248 -2.40994e-18)
(-1.84904 1.07948 -2.23126e-18)
(-2.03789 1.11925 0)
(-2.22149 1.14199 1.92531e-18)
(-2.40013 1.1493 0)
(-2.57478 1.1437 0)
(-2.74667 1.12811 1.58497e-18)
(-2.91702 1.10547 2.99317e-18)
(-3.08686 1.0784 2.83546e-18)
(-3.25693 1.04906 1.34746e-18)
(-3.42764 1.01903 0)
(-3.59923 0.989446 0)
(-3.77174 0.960977 0)
(-3.94512 0.933963 1.11939e-18)
(-4.11924 0.908476 0)
(-4.29391 0.884409 0)
(-4.46893 0.861541 1.98805e-18)
(-4.64404 0.839581 0)
(-4.81897 0.81821 -1.84851e-18)
(-4.99343 0.7971 0)
(-5.16706 0.775924 0)
(-5.3395 0.754378 -1.66914e-18)
(-5.51031 0.732187 0)
(-5.67903 0.709109 1.56405e-18)
(-5.84514 0.684942 3.76454e-22)
(-6.00809 0.659522 2.93724e-18)
(-6.16727 0.632727 1.42344e-18)
(-6.32204 0.604476 1.38002e-18)
(-6.47172 0.574724 0)
(-6.6156 0.543464 0)
(-6.75298 0.510722 -1.25734e-18)
(-6.88313 0.476553 -2.43682e-18)
(-7.0053 0.441036 2.36036e-18)
(-7.11879 0.404274 -3.42748e-18)
(-7.22289 0.366389 -2.2107e-18)
(-7.3169 0.327516 1.06882e-18)
(-7.40018 0.287804 1.03142e-18)
(-7.47211 0.247413 0)
(-7.53212 0.206517 0)
(-7.57969 0.165299 0)
(-7.61434 0.123958 0)
(-7.63563 0.082705 0)
(-7.6431 0.0417611 0)
(-7.63622 0.00128704 0)
(-7.61445 -0.0387091 -1.46759e-18)
(-7.57739 -0.0782377 0)
(-7.52475 -0.117187 0)
(-7.45631 -0.15539 1.23151e-18)
(-7.3719 -0.192693 1.15277e-18)
(-7.27141 -0.228953 2.14484e-18)
(-7.15478 -0.264035 0)
(-7.02205 -0.297814 0)
(-6.8733 -0.330175 0)
(-6.70865 -0.36101 -1.51632e-18)
(-6.52833 -0.390224 -6.82119e-19)
(-6.3326 -0.417727 0)
(-6.12177 -0.44344 -4.11765e-21)
(-5.89622 -0.46729 0)
(-5.65637 -0.489209 -3.79434e-19)
(-5.40275 -0.509142 -6.00044e-19)
(-5.13586 -0.527096 0)
(-4.85639 -0.543087 -3.04668e-19)
(-4.56506 -0.557094 8.46421e-20)
(-4.26232 -0.569272 0)
(-3.94892 -0.579826 0)
(-3.62544 -0.588666 2.59796e-19)
(-3.29255 -0.595653 0)
(-2.95098 -0.600854 -1.06304e-18)
(-2.60145 -0.604376 0)
(-2.24469 -0.606328 0)
(-1.88139 -0.606822 0)
(-1.51222 -0.605976 0)
(-1.13782 -0.603916 1.15226e-18)
(-0.758772 -0.600786 -1.25687e-18)
(-0.375599 -0.596742 0)
(0.0112509 -0.591963 1.47145e-18)
(0.401422 -0.586641 8.95626e-21)
(0.794707 -0.580997 1.65876e-18)
(1.19096 -0.575222 -1.73925e-18)
(1.59037 -0.569518 0)
(1.99267 -0.563892 1.88646e-18)
(2.39918 -0.558395 0)
(2.80738 -0.552018 -4.01751e-18)
(3.22404 -0.544833 0)
(3.62994 -0.528902 -6.38412e-18)
(4.06672 -0.504966 -2.19518e-18)
(4.43463 -0.413111 2.24284e-18)
(-0.0757435 -0.340941 0)
(-0.119858 -0.131912 -1.01166e-17)
(-0.192207 0.0215318 0)
(-0.278734 0.155655 4.79863e-18)
(-0.37432 0.280424 0)
(-0.480235 0.400413 3.77501e-18)
(-0.598434 0.517775 -3.49948e-18)
(-0.729686 0.633393 0)
(-0.873485 0.74714 -3.03697e-18)
(-1.02799 0.857757 2.82031e-18)
(-1.19013 0.962732 0)
(-1.35618 1.05857 0)
(-1.52249 1.14154 2.24844e-18)
(-1.68617 1.20862 2.08819e-18)
(-1.84546 1.25813 -1.94502e-18)
(-1.99979 1.28994 0)
(-2.14955 1.3053 0)
(-2.29574 1.30643 0)
(-2.43966 1.29605 -2.99502e-18)
(-2.58258 1.277 2.82674e-18)
(-2.7256 1.25197 -1.3359e-18)
(-2.86954 1.22326 -2.53578e-18)
(-3.01494 1.19271 2.97084e-21)
(-3.16208 1.16169 2.30326e-18)
(-3.31104 1.13116 2.20066e-18)
(-3.46176 1.10167 0)
(-3.61411 1.0735 -2.01997e-18)
(-3.76786 1.04667 -1.93995e-18)
(-3.92277 1.02108 0)
(-4.07854 0.99647 0)
(-4.23487 0.972557 0)
(-4.39144 0.949007 1.67152e-18)
(-4.5479 0.925476 0)
(-4.70387 0.901623 0)
(-4.85894 0.877128 0)
(-5.01267 0.851701 0)
(-5.16457 0.825082 4.10224e-22)
(-5.31412 0.797053 1.37354e-18)
(-5.46075 0.767436 4.15088e-22)
(-5.60387 0.7361 -1.2912e-18)
(-5.74283 0.702957 -1.25221e-18)
(-5.87697 0.667966 -2.4298e-18)
(-6.0056 0.631125 -2.35639e-18)
(-6.12804 0.592469 1.14184e-18)
(-6.24357 0.552073 1.10673e-18)
(-6.35149 0.510035 -2.14447e-18)
(-6.45111 0.466486 -1.33607e-21)
(-6.54176 0.421574 4.0197e-18)
(-6.62278 0.375468 -1.94235e-18)
(-6.69356 0.328353 0)
(-6.7535 0.280424 0)
(-6.80206 0.23189 -1.74497e-18)
(-6.83871 0.18297 -1.67856e-18)
(-6.86299 0.133887 0)
(-6.87444 0.0848664 0)
(-6.87259 0.0361201 0)
(-6.85695 -0.0121963 0)
(-6.82708 -0.0600172 -2.25821e-21)
(-6.78265 -0.107279 0)
(-6.72342 -0.153834 -1.18913e-18)
(-6.64921 -0.199493 -1.11466e-18)
(-6.55984 -0.244075 -2.08777e-18)
(-6.45524 -0.287407 -1.94393e-18)
(-6.33535 -0.329329 9.01476e-19)
(-6.2002 -0.369691 1.65974e-18)
(-6.04987 -0.408353 0)
(-5.88449 -0.445189 -6.90213e-19)
(-5.70426 -0.48008 -6.19561e-19)
(-5.50943 -0.512923 -1.09295e-18)
(-5.30032 -0.543625 4.73835e-19)
(-5.07727 -0.572102 0)
(-4.84068 -0.598279 6.726e-19)
(-4.59104 -0.622085 1.08085e-18)
(-4.3288 -0.643509 0)
(-4.05469 -0.662558 5.50763e-19)
(-3.76927 -0.679247 6.27582e-21)
(-3.47308 -0.693737 -2.21775e-20)
(-3.16681 -0.706252 0)
(-2.851 -0.716711 -2.31137e-19)
(-2.52629 -0.724965 0)
(-2.19338 -0.73109 4.67615e-19)
(-1.85294 -0.735207 0)
(-1.50565 -0.737448 0)
(-1.15214 -0.737943 0)
(-0.79306 -0.736837 0)
(-0.42899 -0.734281 1.00198e-18)
(-0.0604751 -0.730449 2.20568e-18)
(0.311999 -0.725529 0)
(0.688036 -0.71974 -1.27847e-18)
(1.06732 -0.713318 4.05851e-18)
(1.44968 -0.706516 0)
(1.83501 -0.699573 0)
(2.22353 -0.692723 -3.12404e-18)
(2.61505 -0.686026 0)
(3.01087 -0.679494 3.36635e-18)
(3.40877 -0.672175 1.15048e-20)
(3.8152 -0.663604 0)
(4.21305 -0.646568 1.17849e-20)
(4.64259 -0.620479 0)
(5.01302 -0.533989 -3.84327e-18)
(-0.103505 -0.220331 0)
(-0.163247 -0.0205621 9.29783e-18)
(-0.250621 0.135454 0)
(-0.350899 0.274714 4.1862e-18)
(-0.456295 0.407163 3.62853e-18)
(-0.56789 0.536722 0)
(-0.687486 0.664349 3.06635e-18)
(-0.815333 0.78953 0)
(-0.950345 0.910757 2.6693e-18)
(-1.0904 1.02566 2.48789e-18)
(-1.23274 1.1312 4.63298e-18)
(-1.37452 1.22408 0)
(-1.51338 1.30144 2.01095e-18)
(-1.64787 1.36142 -1.87365e-18)
(-1.7775 1.40351 3.50252e-18)
(-1.90265 1.42852 0)
(-2.02427 1.43823 3.08548e-18)
(-2.1436 1.43508 0)
(-2.26192 1.42176 2.73924e-18)
(-2.38039 1.4009 3.68953e-21)
(-2.49991 1.37489 0)
(-2.62114 1.34574 2.34265e-18)
(-2.74449 1.31505 2.89843e-21)
(-2.87014 1.284 2.61004e-21)
(-2.99811 1.25337 -4.0769e-18)
(-3.1283 1.22364 0)
(-3.26051 1.19503 1.87432e-18)
(-3.39449 1.16753 1.80183e-18)
(-3.52994 1.141 0)
(-3.66654 1.11519 0)
(-3.80395 1.08981 0)
(-3.94181 1.06452 0)
(-4.07973 1.03896 0)
(-4.21732 1.0128 0)
(-4.35413 0.985705 0)
(-4.48971 0.957367 0)
(-4.62357 0.92752 -1.3251e-18)
(-4.75519 0.895931 0)
(-4.884 0.862414 -3.74125e-18)
(-5.00941 0.826833 2.42061e-18)
(-5.13081 0.789098 0)
(-5.24755 0.749173 4.55698e-18)
(-5.35897 0.707064 4.42159e-18)
(-5.46442 0.662823 0)
(-5.56322 0.616539 0)
(-5.65473 0.568337 2.01688e-18)
(-5.73828 0.518372 1.95182e-18)
(-5.81327 0.466821 -1.88928e-18)
(-5.87907 0.413885 0)
(-5.93512 0.35978 0)
(-5.98086 0.304737 0)
(-6.0158 0.248994 1.64096e-18)
(-6.03943 0.192798 -2.10841e-21)
(-6.05132 0.136395 0)
(-6.05103 0.0800253 -1.45498e-18)
(-6.03811 0.0239079 0)
(-6.01216 -0.0317869 0)
(-5.9728 -0.0869411 1.25151e-18)
(-5.91976 -0.141435 0)
(-5.85282 -0.195091 -1.11934e-18)
(-5.77183 -0.247703 0)
(-5.67664 -0.299063 9.78977e-19)
(-5.56718 -0.348975 -9.15296e-19)
(-5.44341 -0.397254 8.47569e-19)
(-5.30535 -0.443729 -1.55167e-18)
(-5.15309 -0.488238 1.42148e-18)
(-4.98676 -0.530632 1.28351e-18)
(-4.80653 -0.570778 1.15064e-18)
(-4.61266 -0.608555 2.04188e-18)
(-4.40542 -0.643857 8.9245e-19)
(-4.18517 -0.676596 0)
(-3.95227 -0.706686 6.35402e-19)
(-3.70715 -0.734047 -5.04947e-19)
(-3.45026 -0.758647 3.85002e-19)
(-3.18226 -0.780489 -2.58313e-19)
(-2.90363 -0.799606 -2.81089e-19)
(-2.61498 -0.816169 2.05321e-20)
(-2.31692 -0.83043 0)
(-2.00995 -0.84231 2.03148e-19)
(-1.69469 -0.851652 3.13324e-19)
(-1.37179 -0.858546 0)
(-1.04185 -0.863127 5.25418e-19)
(-0.705504 -0.865544 -6.27193e-19)
(-0.363349 -0.86595 0)
(-0.0159644 -0.864512 0)
(0.33611 -0.861408 -9.13658e-19)
(0.692385 -0.856839 -2.97984e-18)
(1.05243 -0.851029 -2.14102e-18)
(1.4159 -0.844228 0)
(1.78251 -0.836709 -2.44208e-18)
(2.15216 -0.82877 0)
(2.52476 -0.820697 0)
(2.9006 -0.812758 8.87063e-21)
(3.27957 -0.805062 0)
(3.66298 -0.797599 -3.04303e-18)
(4.04883 -0.789481 3.14177e-18)
(4.44351 -0.77986 0)
(4.83137 -0.762252 3.31994e-18)
(5.25232 -0.735266 0)
(5.61972 -0.655259 3.46053e-18)
(-0.121568 -0.0769749 3.12273e-17)
(-0.19095 0.114709 0)
(-0.28691 0.266013 -4.84888e-18)
(-0.395798 0.404792 -3.75749e-18)
(-0.506231 0.539908 -3.26118e-18)
(-0.618708 0.673893 0)
(-0.734801 0.806319 0)
(-0.854512 0.935351 -5.15445e-18)
(-0.976686 1.05841 2.41165e-18)
(-1.09949 1.1725 -4.50993e-18)
(-1.22086 1.27455 1.48483e-21)
(-1.33895 1.36181 3.94179e-18)
(-1.45253 1.4323 -3.6854e-18)
(-1.56117 1.48512 -3.45528e-18)
(-1.66517 1.52058 0)
(-1.76537 1.54002 0)
(-1.86293 1.54551 -2.87058e-18)
(-1.95909 1.53948 0)
(-2.05504 1.52446 0)
(-2.15178 1.50284 3.30765e-21)
(-2.25008 1.47674 0)
(-2.35046 1.44792 -2.20675e-18)
(-2.45324 1.41775 2.68675e-21)
(-2.55854 1.38724 -4.03146e-18)
(-2.66636 1.35706 -2.26001e-21)
(-2.77655 1.3276 -1.85369e-18)
(-2.88891 1.29901 0)
(-3.00316 1.27126 0)
(-3.11898 1.24418 0)
(-3.23602 1.21753 3.18556e-18)
(-3.35391 1.191 0)
(-3.47226 1.16425 0)
(-3.59066 1.13694 0)
(-3.70869 1.10871 0)
(-3.8259 1.07924 0)
(-3.94183 1.0482 0)
(-4.05599 1.01534 -2.53986e-18)
(-4.16787 0.980397 0)
(-4.27691 0.943195 2.39061e-18)
(-4.38255 0.903591 -2.32124e-18)
(-4.48419 0.861502 0)
(-4.58125 0.816896 2.4338e-21)
(-4.6731 0.769794 -4.25269e-18)
(-4.75913 0.720264 -2.06518e-18)
(-4.83873 0.668416 0)
(-4.91131 0.614399 -1.94095e-18)
(-4.97629 0.558393 1.88338e-18)
(-5.03309 0.500605 1.82382e-18)
(-5.08119 0.441264 0)
(-5.12007 0.380618 1.70511e-18)
(-5.14924 0.318924 0)
(-5.16824 0.256451 1.58593e-18)
(-5.17665 0.193468 1.52371e-18)
(-5.17406 0.130244 0)
(-5.16007 0.0670337 1.4024e-18)
(-5.13431 0.00407108 0)
(-5.09643 -0.0584505 0)
(-5.04611 -0.12037 2.41539e-18)