# Forces     
# CofR       : (5.000000e-01 0.000000e+00 0.000000e+00)
# Time       forces(pressure viscous porous)	moments(pressure viscous porous)
1            	((-1.198245e-02 -9.692131e-02 3.796856e-21) (1.223239e-04 -7.592347e-06 2.258355e-21) (0.000000e+00 0.000000e+00 0.000000e+00)) ((-1.376388e-22 1.509536e-21 3.968037e-02) (-4.683635e-23 5.533664e-22 5.936851e-06) (0.000000e+00 0.000000e+00 0.000000e+00))
2            	((-4.320338e-03 -4.434937e-02 1.594878e-21) (1.175388e-04 8.626221e-07 -1.040700e-22) (0.000000e+00 0.000000e+00 0.000000e+00)) ((-7.073350e-23 7.573921e-22 1.749025e-02) (1.852999e-24 -2.176974e-23 2.793935e-06) (0.000000e+00 0.000000e+00 0.000000e+00))
3            	((-1.392447e-03 -2.458660e-02 1.358899e-21) (1.133844e-04 7.194865e-06 -6.119019e-23) (0.000000e+00 0.000000e+00 0.000000e+00)) ((-5.783453e-23 6.221020e-22 9.135155e-03) (1.261446e-24 -1.475128e-23 -1.670687e-07) (0.000000e+00 0.000000e+00 0.000000e+00))
4            	((-9.581819e-04 -2.176758e-02 1.380597e-21) (1.068380e-04 7.798932e-06 2.341417e-23) (0.000000e+00 0.000000e+00 0.000000e+00)) ((-5.613884e-23 6.070342e-22 8.000578e-03) (-5.019184e-25 6.033653e-24 -7.145550e-07) (0.000000e+00 0.000000e+00 0.000000e+00))
5            	((-6.701912e-04 -1.950213e-02 1.284703e-21) (9.980952e-05 6.544560e-06 7.434676e-24) (0.000000e+00 0.000000e+00 0.000000e+00)) ((-5.123805e-23 5.553111e-22 7.170782e-03) (-1.797284e-25 2.114816e-24 -3.852652e-07) (0.000000e+00 0.000000e+00 0.000000e+00))
6            	((-5.652067e-04 -1.822054e-02 1.196149e-21) (9.338056e-05 5.887140e-06 1.754494e-23) (0.000000e+00 0.000000e+00 0.000000e+00)) ((-4.688752e-23 5.092187e-22 6.750495e-03) (-3.787782e-25 4.471958e-24 -3.467280e-07) (0.000000e+00 0.000000e+00 0.000000e+00))
7            	((-6.287670e-04 -1.856361e-02 1.080435e-21) (8.706054e-05 5.507922e-06 4.837589e-23) (0.000000e+00 0.000000e+00 0.000000e+00)) ((-4.405481e-23 4.762147e-22 6.927678e-03) (-1.044672e-24 1.232770e-23 -4.206758e-07) (0.000000e+00 0.000000e+00 0.000000e+00))
8            	((-6.908843e-04 -1.892333e-02 9.980074e-22) (8.069933e-05 4.958514e-06 5.386335e-23) (0.000000e+00 0.000000e+00 0.000000e+00)) ((-4.215105e-23 4.537937e-22 7.097355e-03) (-1.154256e-24 1.362838e-23 -3.779340e-07) (0.000000e+00 0.000000e+00 0.000000e+00))
9            	((-6.733124e-04 -1.859407e-02 9.898895e-22) (7.466793e-05 4.586577e-06 5.274240e-23) (0.000000e+00 0.000000e+00 0.000000e+00)) ((-4.154390e-23 4.475797e-22 6.966593e-03) (-1.103959e-24 1.306779e-23 -3.944774e-07) (0.000000e+00 0.000000e+00 0.000000e+00))
10           	((-5.730093e-04 -1.810704e-02 9.277843e-22) (6.877832e-05 4.367689e-06 6.032876e-23) (0.000000e+00 0.000000e+00 0.000000e+00)) ((-4.057312e-23 4.351119e-22 6.725017e-03) (-1.286573e-24 1.529083e-23 -4.775981e-07) (0.000000e+00 0.000000e+00 0.000000e+00))
11           	((-2.541879e-04 -1.615067e-02 9.312157e-22) (6.132473e-05 4.184253e-06 4.642261e-23) (0.000000e+00 0.000000e+00 0.000000e+00)) ((-3.995760e-23 4.294134e-22 5.874417e-03) (-9.744790e-25 1.172665e-23 -5.965440e-07) (0.000000e+00 0.000000e+00 0.000000e+00))
12           	((-2.278701e-04 -1.558726e-02 9.820092e-22) (5.536840e-05 4.011985e-06 4.949273e-23) (0.000000e+00 0.000000e+00 0.000000e+00)) ((-4.064609e-23 4.386035e-22 5.630230e-03) (-1.028887e-24 1.227213e-23 -6.934355e-07) (0.000000e+00 0.000000e+00 0.000000e+00))
13           	((-1.738174e-04 -1.533506e-02 9.439829e-22) (5.013522e-05 3.840422e-06 5.235129e-23) (0.000000e+00 0.000000e+00 0.000000e+00)) ((-4.019426e-23 4.323305e-22 5.494190e-03) (-1.111639e-24 1.311123e-23 -7.681653e-07) (0.000000e+00 0.000000e+00 0.000000e+00))
14           	((-5.371861e-05 -1.430906e-02 9.605463e-22) (4.477850e-05 3.698532e-06 4.457553e-23) (0.000000e+00 0.000000e+00 0.000000e+00)) ((-4.008760e-23 4.321661e-22 5.055322e-03) (-9.299792e-25 1.116818e-23 -8.480590e-07) (0.000000e+00 0.000000e+00 0.000000e+00))
15           	((2.014444e-04 -1.248476e-02 8.764631e-22) (3.868999e-05 3.498140e-06 3.386956e-23) (0.000000e+00 0.000000e+00 0.000000e+00)) ((-3.769231e-23 4.049679e-22 4.278522e-03) (-7.298091e-25 8.749835e-24 -9.203372e-07) (0.000000e+00 0.000000e+00 0.000000e+00))
16           	((3.756014e-04 -1.133925e-02 8.188370e-22) (3.325753e-05 3.254252e-06 4.302106e-23) (0.000000e+00 0.000000e+00 0.000000e+00)) ((-3.642558e-23 3.899061e-22 3.773624e-03) (-9.118065e-25 1.087960e-23 -9.601544e-07) (0.000000e+00 0.000000e+00 0.000000e+00))
17           	((4.154253e-04 -1.070318e-02 7.925008e-22) (2.890197e-05 3.031377e-06 3.897220e-23) (0.000000e+00 0.000000e+00 0.000000e+00)) ((-3.556862e-23 3.803685e-22 3.510342e-03) (-8.149665e-25 9.673555e-24 -9.765610e-07) (0.000000e+00 0.000000e+00 0.000000e+00))
18           	((4.578598e-04 -1.016802e-02 7.319019e-22) (2.506287e-05 2.771570e-06 4.010896e-23) (0.000000e+00 0.000000e+00 0.000000e+00)) ((-3.425556e-23 3.647111e-22 3.283169e-03) (-8.471080e-25 1.003879e-23 -9.633233e-07) (0.000000e+00 0.000000e+00 0.000000e+00))
19           	((6.121140e-04 -8.970817e-03 6.674320e-22) (2.091199e-05 2.543512e-06 3.750512e-23) (0.000000e+00 0.000000e+00 0.000000e+00)) ((-3.258917e-23 3.454815e-22 2.778401e-03) (-7.883753e-25 9.434542e-24 -9.663393e-07) (0.000000e+00 0.000000e+00 0.000000e+00))
20           	((6.552068e-04 -8.611209e-03 6.287878e-22) (1.787949e-05 2.336688e-06 4.198352e-23) (0.000000e+00 0.000000e+00 0.000000e+00)) ((-3.188462e-23 3.367644e-22 2.619894e-03) (-8.888306e-25 1.057399e-23 -9.529102e-07) (0.000000e+00 0.000000e+00 0.000000e+00))
21           	((7.109986e-04 -7.989433e-03 6.188754e-22) (1.517552e-05 2.124204e-06 3.914381e-23) (0.000000e+00 0.000000e+00 0.000000e+00)) ((-3.141820e-23 3.318012e-22 2.365614e-03) (-8.179227e-25 9.810333e-24 -9.211213e-07) (0.000000e+00 0.000000e+00 0.000000e+00))
22           	((7.810250e-04 -7.339537e-03 5.793609e-22) (1.282793e-05 1.939580e-06 3.882020e-23) (0.000000e+00 0.000000e+00 0.000000e+00)) ((-3.041334e-23 3.201725e-22 2.096206e-03) (-8.258171e-25 9.889632e-24 -8.931774e-07) (0.000000e+00 0.000000e+00 0.000000e+00))
23           	((8.741283e-04 -6.654905e-03 5.394221e-22) (1.088002e-05 1.741939e-06 4.238201e-23) (0.000000e+00 0.000000e+00 0.000000e+00)) ((-2.955874e-23 3.099564e-22 1.803809e-03) (-8.945176e-25 1.073933e-23 -8.471023e-07) (0.000000e+00 0.000000e+00 0.000000e+00))
24           	((9.626609e-04 -6.049636e-03 5.354553e-22) (9.691590e-06 1.593059e-06 4.077451e-23) (0.000000e+00 0.000000e+00 0.000000e+00)) ((-2.935586e-23 3.078153e-22 1.546502e-03) (-8.655569e-25 1.036856e-23 -8.006549e-07) (0.000000e+00 0.000000e+00 0.000000e+00))
25           	((9.782112e-04 -5.911394e-03 5.593843e-22) (9.365726e-06 1.503405e-06 3.945645e-23) (0.000000e+00 0.000000e+00 0.000000e+00)) ((-2.988784e-23 3.141267e-22 1.486029e-03) (-8.295606e-25 9.907579e-24 -7.581076e-07) (0.000000e+00 0.000000e+00 0.000000e+00))
26           	((9.976899e-04 -5.765965e-03 5.554774e-22) (9.202831e-06 1.418404e-06 4.454932e-23) (0.000000e+00 0.000000e+00 0.000000e+00)) ((-2.992203e-23 3.142517e-22 1.419259e-03) (-9.385481e-25 1.120223e-23 -7.092922e-07) (0.000000e+00 0.000000e+00 0.000000e+00))
27           	((1.029535e-03 -5.563486e-03 5.569488e-22) (9.170686e-06 1.347549e-06 4.502801e-23) (0.000000e+00 0.000000e+00 0.000000e+00)) ((-3.001758e-23 3.152396e-22 1.328745e-03) (-9.595925e-25 1.143485e-23 -6.592910e-07) (0.000000e+00 0.000000e+00 0.000000e+00))
28           	((1.066047e-03 -5.384244e-03 5.517208e-22) (9.191245e-06 1.305146e-06 3.981044e-23) (0.000000e+00 0.000000e+00 0.000000e+00)) ((-2.996886e-23 3.145051e-22 1.247351e-03) (-8.406277e-25 1.003993e-23 -6.237078e-07) (0.000000e+00 0.000000e+00 0.000000e+00))
29           	((1.098557e-03 -5.192433e-03 5.556868e-22) (9.346209e-06 1.287700e-06 4.312550e-23) (0.000000e+00 0.000000e+00 0.000000e+00)) ((-2.999861e-23 3.149935e-22 1.164565e-03) (-9.138712e-25 1.093274e-23 -5.964278e-07) (0.000000e+00 0.000000e+00 0.000000e+00))
30           	((1.107616e-03 -5.208950e-03 5.655526e-22) (9.891801e-06 1.255050e-06 4.725415e-23) (0.000000e+00 0.000000e+00 0.000000e+00)) ((-3.027085e-23 3.181007e-22 1.166761e-03) (-9.963541e-25 1.192669e-23 -5.592018e-07) (0.000000e+00 0.000000e+00 0.000000e+00))
31           	((1.113594e-03 -5.182729e-03 5.505119e-22) (1.055042e-05 1.230139e-06 4.272520e-23) (0.000000e+00 0.000000e+00 0.000000e+00)) ((-2.996940e-23 3.144480e-22 1.153306e-03) (-9.000367e-25 1.078078e-23 -5.228906e-07) (0.000000e+00 0.000000e+00 0.000000e+00))
32           	((1.120435e-03 -5.156385e-03 5.370593e-22) (1.121661e-05 1.214520e-06 4.586075e-23) (0.000000e+00 0.000000e+00 0.000000e+00)) ((-2.968343e-23 3.110248e-22 1.140504e-03) (-9.648008e-25 1.157092e-23 -4.904661e-07) (0.000000e+00 0.000000e+00 0.000000e+00))
33           	((1.127838e-03 -5.127095e-03 5.244263e-22) (1.196122e-05 1.202308e-06 4.404926e-23) (0.000000e+00 0.000000e+00 0.000000e+00)) ((-2.939593e-23 3.076293e-22 1.126802e-03) (-9.276994e-25 1.111475e-23 -4.593625e-07) (0.000000e+00 0.000000e+00 0.000000e+00))
34           	((1.135481e-03 -5.104155e-03 5.109223e-22) (1.275649e-05 1.209494e-06 4.689904e-23) (0.000000e+00 0.000000e+00 0.000000e+00)) ((-2.909242e-23 3.040361e-22 1.115559e-03) (-9.807490e-25 1.175834e-23 -4.371632e-07) (0.000000e+00 0.000000e+00 0.000000e+00))
35           	((1.144554e-03 -5.036737e-03 5.017549e-22) (1.352527e-05 1.214397e-06 4.306315e-23) (0.000000e+00 0.000000e+00 0.000000e+00)) ((-2.880447e-23 3.008150e-22 1.087911e-03) (-9.027654e-25 1.081661e-23 -4.140434e-07) (0.000000e+00 0.000000e+00 0.000000e+00))
36           	((1.154354e-03 -5.009967e-03 4.897194e-22) (1.429071e-05 1.226629e-06 4.537125e-23) (0.000000e+00 0.000000e+00 0.000000e+00)) ((-2.852379e-23 2.975154e-22 1.075003e-03) (-9.477475e-25 1.135890e-23 -3.963774e-07) (0.000000e+00 0.000000e+00 0.000000e+00))
37           	((1.157493e-03 -5.017318e-03 4.757609e-22) (1.512456e-05 1.239777e-06 4.670122e-23) (0.000000e+00 0.000000e+00 0.000000e+00)) ((-2.823747e-23 2.940628e-22 1.074462e-03) (-9.751107e-25 1.168630e-23 -3.774270e-07) (0.000000e+00 0.000000e+00 0.000000e+00))
38           	((1.157821e-03 -5.086707e-03 4.734541e-22) (1.599933e-05 1.262659e-06 4.481767e-23) (0.000000e+00 0.000000e+00 0.000000e+00)) ((-2.822936e-23 2.938665e-22 1.099123e-03) (-9.368597e-25 1.121451e-23 -3.619208e-07) (0.000000e+00 0.000000e+00 0.000000e+00))
39           	((1.162121e-03 -5.070778e-03 4.754074e-22) (1.678755e-05 1.293368e-06 4.358082e-23) (0.000000e+00 0.000000e+00 0.000000e+00)) ((-2.819836e-23 2.936712e-22 1.091840e-03) (-9.057582e-25 1.086301e-23 -3.511346e-07) (0.000000e+00 0.000000e+00 0.000000e+00))
40           	((1.157995e-03 -5.171220e-03 4.745090e-22) (1.767068e-05 1.325411e-06 4.471892e-23) (0.000000e+00 0.000000e+00 0.000000e+00)) ((-2.824981e-23 2.941161e-22 1.128396e-03) (-9.330484e-25 1.116956e-23 -3.414689e-07) (0.000000e+00 0.000000e+00 0.000000e+00))
41           	((1.157686e-03 -5.179686e-03 4.784923e-22) (1.846475e-05 1.362272e-06 4.306038e-23) (0.000000e+00 0.000000e+00 0.000000e+00)) ((-2.829419e-23 2.947450e-22 1.130260e-03) (-8.961736e-25 1.074307e-23 -3.338783e-07) (0.000000e+00 0.000000e+00 0.000000e+00))
42           	((1.153578e-03 -5.285267e-03 4.836970e-22) (1.938047e-05 1.406039e-06 4.470683e-23) (0.000000e+00 0.000000e+00 0.000000e+00)) ((-2.848439e-23 2.968289e-22 1.168687e-03) (-9.324893e-25 1.116380e-23 -3.283502e-07) (0.000000e+00 0.000000e+00 0.000000e+00))
43           	((1.153318e-03 -5.296841e-03 4.931717e-22) (2.017564e-05 1.453920e-06 4.302251e-23) (0.000000e+00 0.000000e+00 0.000000e+00)) ((-2.866638e-23 2.990543e-22 1.170971e-03) (-8.962619e-25 1.074307e-23 -3.257335e-07) (0.000000e+00 0.000000e+00 0.000000e+00))
44           	((1.150337e-03 -5.397823e-03 5.040455e-22) (2.110763e-05 1.504468e-06 4.502544e-23) (0.000000e+00 0.000000e+00 0.000000e+00)) ((-2.898083e-23 3.026164e-22 1.207158e-03) (-9.381365e-25 1.123639e-23 -3.225098e-07) (0.000000e+00 0.000000e+00 0.000000e+00))
45           	((1.150240e-03 -5.409568e-03 5.171923e-22) (2.185179e-05 1.566815e-06 4.390891e-23) (0.000000e+00 0.000000e+00 0.000000e+00)) ((-2.927305e-23 3.060835e-22 1.208485e-03) (-9.142133e-25 1.096310e-23 -3.281477e-07) (0.000000e+00 0.000000e+00 0.000000e+00))
46           	((1.153724e-03 -5.456291e-03 5.273264e-22) (2.272474e-05 1.626213e-06 4.469260e-23) (0.000000e+00 0.000000e+00 0.000000e+00)) ((-2.955309e-23 3.092789e-22 1.222492e-03) (-9.318527e-25 1.116876e-23 -3.300534e-07) (0.000000e+00 0.000000e+00 0.000000e+00))
47           	((1.155369e-03 -5.455254e-03 5.474361e-22) (2.342783e-05 1.694896e-06 4.484349e-23) (0.000000e+00 0.000000e+00 0.000000e+00)) ((-3.000234e-23 3.146038e-22 1.218220e-03) (-9.320222e-25 1.118781e-23 -3.396795e-07) (0.000000e+00 0.000000e+00 0.000000e+00))
48           	((1.149437e-03 -5.573822e-03 5.651698e-22) (2.433736e-05 1.759246e-06 4.567708e-23) (0.000000e+00 0.000000e+00 0.000000e+00)) ((-3.050187e-23 3.202862e-22 1.260932e-03) (-9.517353e-25 1.140554e-23 -3.433810e-07) (0.000000e+00 0.000000e+00 0.000000e+00))
49           	((1.148176e-03 -5.588547e-03 5.835258e-22) (2.501390e-05 1.832647e-06 4.527881e-23) (0.000000e+00 0.000000e+00 0.000000e+00)) ((-3.094749e-23 3.254860e-22 1.263084e-03) (-9.426212e-25 1.131326e-23 -3.553541e-07) (0.000000e+00 0.000000e+00 0.000000e+00))
50           	((1.143600e-03 -5.677052e-03 6.039918e-22) (2.587790e-05 1.903300e-06 4.586974e-23) (0.000000e+00 0.000000e+00 0.000000e+00)) ((-3.147551e-23 3.315811e-22 1.294857e-03) (-9.554873e-25 1.145679e-23 -3.621130e-07) (0.000000e+00 0.000000e+00 0.000000e+00))
51           	((1.144976e-03 -5.693050e-03 6.172455e-22) (2.650142e-05 1.971480e-06 4.634540e-23) (0.000000e+00 0.000000e+00 0.000000e+00)) ((-3.187936e-23 3.361192e-22 1.295658e-03) (-9.672461e-25 1.161217e-23 -3.731303e-07) (0.000000e+00 0.000000e+00 0.000000e+00))
52           	((1.145128e-03 -5.738365e-03 6.424563e-22) (2.724440e-05 2.042727e-06 4.643808e-23) (0.000000e+00 0.000000e+00 0.000000e+00)) ((-3.249612e-23 3.433059e-22 1.309617e-03) (-9.672276e-25 1.160427e-23 -3.823734e-07) (0.000000e+00 0.000000e+00 0.000000e+00))
53           	((1.150988e-03 -5.692978e-03 6.653247e-22) (2.785048e-05 2.101817e-06 4.525139e-23) (0.000000e+00 0.000000e+00 0.000000e+00)) ((-3.300416e-23 3.493342e-22 1.288339e-03) (-9.424697e-25 1.131596e-23 -3.880149e-07) (0.000000e+00 0.000000e+00 0.000000e+00))
54           	((1.157910e-03 -5.676678e-03 6.781576e-22) (2.849606e-05 2.158172e-06 4.525158e-23) (0.000000e+00 0.000000e+00 0.000000e+00)) ((-3.334532e-23 3.532522e-22 1.277557e-03) (-9.459108e-25 1.132970e-23 -3.929835e-07) (0.000000e+00 0.000000e+00 0.000000e+00))
55           	((1.158056e-03 -5.679497e-03 7.017530e-22) (2.898087e-05 2.204086e-06 4.760737e-23) (0.000000e+00 0.000000e+00 0.000000e+00)) ((-3.399566e-23 3.606762e-22 1.273603e-03) (-9.915620e-25 1.188221e-23 -3.968964e-07) (0.000000e+00 0.000000e+00 0.000000e+00))
56           	((1.160058e-03 -5.672789e-03 7.183431e-22) (2.961887e-05 2.253847e-06 4.502857e-23) (0.000000e+00 0.000000e+00 0.000000e+00)) ((-3.439980e-23 3.653890e-22 1.268371e-03) (-9.406239e-25 1.124826e-23 -3.973285e-07) (0.000000e+00 0.000000e+00 0.000000e+00))
57           	((1.156833e-03 -5.726754e-03 7.389732e-22) (3.020619e-05 2.309221e-06 4.679058e-23) (0.000000e+00 0.000000e+00 0.000000e+00)) ((-3.496164e-23 3.718155e-22 1.286327e-03) (-9.762584e-25 1.166251e-23 -4.033086e-07) (0.000000e+00 0.000000e+00 0.000000e+00))
58           	((1.163284e-03 -5.610801e-03 7.574192e-22) (3.058293e-05 2.356254e-06 4.557050e-23) (0.000000e+00 0.000000e+00 0.000000e+00)) ((-3.536577e-23 3.766238e-22 1.239066e-03) (-9.503171e-25 1.137482e-23 -4.094349e-07) (0.000000e+00 0.000000e+00 0.000000e+00))
59           	((1.175126e-03 -5.504010e-03 7.700357e-22) (3.104375e-05 2.398978e-06 4.533811e-23) (0.000000e+00 0.000000e+00 0.000000e+00)) ((-3.563745e-23 3.798675e-22 1.193800e-03) (-9.464424e-25 1.132381e-23 -4.119055e-07) (0.000000e+00 0.000000e+00 0.000000e+00))
60           	((1.185438e-03 -5.426194e-03 7.844850e-22) (3.141715e-05 2.443582e-06 4.633217e-23) (0.000000e+00 0.000000e+00 0.000000e+00)) ((-3.601162e-23 3.841839e-22 1.158980e-03) (-9.680104e-25 1.158645e-23 -4.187779e-07) (0.000000e+00 0.000000e+00 0.000000e+00))
61           	((1.192207e-03 -5.359521e-03 7.979485e-22) (3.175974e-05 2.492200e-06 4.679555e-23) (0.000000e+00 0.000000e+00 0.000000e+00)) ((-3.637370e-23 3.883341e-22 1.129648e-03) (-9.768913e-25 1.170167e-23 -4.281099e-07) (0.000000e+00 0.000000e+00 0.000000e+00))
62           	((1.194989e-03 -5.304095e-03 8.096779e-22) (3.210632e-05 2.540440e-06 4.650945e-23) (0.000000e+00 0.000000e+00 0.000000e+00)) ((-3.669311e-23 3.919877e-22 1.106169e-03) (-9.726051e-25 1.165797e-23 -4.370782e-07) (0.000000e+00 0.000000e+00 0.000000e+00))
63           	((1.195268e-03 -5.255871e-03 8.198659e-22) (3.243332e-05 2.594556e-06 4.686426e-23) (0.000000e+00 0.000000e+00 0.000000e+00)) ((-3.697651e-23 3.952180e-22 1.086480e-03) (-9.795429e-25 1.174320e-23 -4.495703e-07) (0.000000e+00 0.000000e+00 0.000000e+00))
64           	((1.195133e-03 -5.206286e-03 8.287650e-22) (3.272693e-05 2.648689e-06 4.662079e-23) (0.000000e+00 0.000000e+00 0.000000e+00)) ((-3.722945e-23 3.980911e-22 1.066738e-03) (-9.757624e-25 1.170196e-23 -4.630929e-07) (0.000000e+00 0.000000e+00 0.000000e+00))
65           	((1.196190e-03 -5.147866e-03 8.367614e-22) (3.298397e-05 2.696438e-06 4.708580e-23) (0.000000e+00 0.000000e+00 0.000000e+00)) ((-3.746065e-23 4.007102e-22 1.043549e-03) (-9.852385e-25 1.182855e-23 -4.744437e-07) (0.000000e+00 0.000000e+00 0.000000e+00))
66           	((1.190524e-03 -5.175889e-03 8.302099e-22) (3.327060e-05 2.742354e-06 4.816221e-23) (0.000000e+00 0.000000e+00 0.000000e+00)) ((-3.751823e-23 4.009221e-22 1.053296e-03) (-1.013212e-24 1.214425e-23 -4.855373e-07) (0.000000e+00 0.000000e+00 0.000000e+00))
67           	((1.189472e-03 -5.130793e-03 8.334645e-22) (3.346001e-05 2.780663e-06 4.706219e-23) (0.000000e+00 0.000000e+00 0.000000e+00)) ((-3.765630e-23 4.024078e-22 1.035867e-03) (-9.879837e-25 1.186489e-23 -4.931920e-07) (0.000000e+00 0.000000e+00 0.000000e+00))
68           	((1.194036e-03 -4.983701e-03 8.421042e-22) (3.357569e-05 2.812685e-06 4.620593e-23) (0.000000e+00 0.000000e+00 0.000000e+00)) ((-3.779754e-23 4.042013e-22 9.811507e-04) (-9.668127e-25 1.163163e-23 -4.998367e-07) (0.000000e+00 0.000000e+00 0.000000e+00))
69           	((1.204762e-03 -4.830521e-03 8.459966e-22) (3.367504e-05 2.839704e-06 4.674611e-23) (0.000000e+00 0.000000e+00 0.000000e+00)) ((-3.786467e-23 4.050428e-22 9.208192e-04) (-9.806559e-25 1.179493e-23 -5.055333e-07) (0.000000e+00 0.000000e+00 0.000000e+00))
70           	((1.216481e-03 -4.678680e-03 8.471909e-22) (3.373204e-05 2.854900e-06 4.675428e-23) (0.000000e+00 0.000000e+00 0.000000e+00)) ((-3.789916e-23 4.054336e-22 8.610218e-04) (-9.818026e-25 1.182374e-23 -5.078831e-07) (0.000000e+00 0.000000e+00 0.000000e+00))
71           	((1.225830e-03 -4.536883e-03 8.456295e-22) (3.375890e-05 2.878935e-06 4.726876e-23) (0.000000e+00 0.000000e+00 0.000000e+00)) ((-3.787856e-23 4.051565e-22 8.061256e-04) (-9.923729e-25 1.195081e-23 -5.149364e-07) (0.000000e+00 0.000000e+00 0.000000e+00))
72           	((1.231600e-03 -4.414136e-03 8.428488e-22) (3.378053e-05 2.900495e-06 4.692136e-23) (0.000000e+00 0.000000e+00 0.000000e+00)) ((-3.783536e-23 4.046008e-22 7.597132e-04) (-9.861442e-25 1.188535e-23 -5.214087e-07) (0.000000e+00 0.000000e+00 0.000000e+00))
73           	((1.234185e-03 -4.308856e-03 8.393745e-22) (3.378163e-05 2.918025e-06 4.753217e-23) (0.000000e+00 0.000000e+00 0.000000e+00)) ((-3.778104e-23 4.039032e-22 7.209751e-04) (-9.985501e-25 1.203081e-23 -5.267338e-07) (0.000000e+00 0.000000e+00 0.000000e+00))
74           	((1.234773e-03 -4.213158e-03 8.351988e-22) (3.377488e-05 2.929140e-06 4.708962e-23) (0.000000e+00 0.000000e+00 0.000000e+00)) ((-3.771193e-23 4.030282e-22 6.866259e-04) (-9.898018e-25 1.193223e-23 -5.295280e-07) (0.000000e+00 0.000000e+00 0.000000e+00))
75           	((1.234611e-03 -4.118704e-03 8.297712e-22) (3.374856e-05 2.946274e-06 4.756617e-23) (0.000000e+00 0.000000e+00 0.000000e+00)) ((-3.761262e-23 4.018005e-22 6.531779e-04) (-9.991583e-25 1.203941e-23 -5.360024e-07) (0.000000e+00 0.000000e+00 0.000000e+00))
76           	((1.235020e-03 -4.018765e-03 8.226980e-22) (3.371146e-05 2.954720e-06 4.717183e-23) (0.000000e+00 0.000000e+00 0.000000e+00)) ((-3.747165e-23 4.000902e-22 6.178332e-04) (-9.910430e-25 1.194722e-23 -5.388587e-07) (0.000000e+00 0.000000e+00 0.000000e+00))
77           	((1.236269e-03 -3.910081e-03 8.137291e-22) (3.364626e-05 2.977334e-06 4.737009e-23) (0.000000e+00 0.000000e+00 0.000000e+00)) ((-3.728178e-23 3.978155e-22 5.792036e-04) (-9.947026e-25 1.197824e-23 -5.499563e-07) (0.000000e+00 0.000000e+00 0.000000e+00))
78           	((1.238625e-03 -3.792962e-03 8.028667e-22) (3.356867e-05 2.993404e-06 4.707518e-23) (0.000000e+00 0.000000e+00 0.000000e+00)) ((-3.704278e-23 3.949743e-22 5.374171e-04) (-9.888522e-25 1.191727e-23 -5.585611e-07) (0.000000e+00 0.000000e+00 0.000000e+00))
79           	((1.241580e-03 -3.670385e-03 7.900733e-22) (3.345265e-05 3.009029e-06 4.712084e-23) (0.000000e+00 0.000000e+00 0.000000e+00)) ((-3.675436e-23 3.915618e-22 4.936768e-04) (-9.886836e-25 1.190677e-23 -5.683153e-07) (0.000000e+00 0.000000e+00 0.000000e+00))
80           	((1.244647e-03 -3.545502e-03 7.750195e-22) (3.332125e-05 3.026716e-06 4.692371e-23) (0.000000e+00 0.000000e+00 0.000000e+00)) ((-3.640969e-23 3.874958e-22 4.492961e-04) (-9.850900e-25 1.185588e-23 -5.800905e-07) (0.000000e+00 0.000000e+00 0.000000e+00))
81           	((1.247447e-03 -3.424359e-03 7.581255e-22) (3.318165e-05 3.024872e-06 4.700994e-23) (0.000000e+00 0.000000e+00 0.000000e+00)) ((-3.602076e-23 3.829124e-22 4.066701e-04) (-9.860784e-25 1.188287e-23 -5.828523e-07) (0.000000e+00 0.000000e+00 0.000000e+00))
82           	((1.249168e-03 -3.310096e-03 7.394013e-22) (3.301266e-05 3.024603e-06 4.676370e-23) (0.000000e+00 0.000000e+00 0.000000e+00)) ((-3.558713e-23 3.778081e-22 3.670756e-04) (-9.810127e-25 1.180699e-23 -5.876865e-07) (0.000000e+00 0.000000e+00 0.000000e+00))
83           	((1.250202e-03 -3.198394e-03 7.178297e-22) (3.284058e-05 3.020741e-06 4.670565e-23) (0.000000e+00 0.000000e+00 0.000000e+00)) ((-3.508273e-23 3.718814e-22 3.288681e-04) (-9.790900e-25 1.177970e-23 -5.913890e-07) (0.000000e+00 0.000000e+00 0.000000e+00))
84           	((1.250979e-03 -3.088000e-03 6.931683e-22) (3.266519e-05 2.995378e-06 4.660330e-23) (0.000000e+00 0.000000e+00 0.000000e+00)) ((-3.450310e-23 3.650775e-22 2.914162e-04) (-9.773876e-25 1.177318e-23 -5.849097e-07) (0.000000e+00 0.000000e+00 0.000000e+00))
85           	((1.250928e-03 -2.982853e-03 6.659565e-22) (3.247242e-05 2.963666e-06 4.650092e-23) (0.000000e+00 0.000000e+00 0.000000e+00)) ((-3.386252e-23 3.575601e-22 2.561187e-04) (-9.744301e-25 1.172367e-23 -5.762186e-07) (0.000000e+00 0.000000e+00 0.000000e+00))
86           	((1.249961e-03 -2.884532e-03 6.360233e-22) (3.228245e-05 2.942080e-06 4.633788e-23) (0.000000e+00 0.000000e+00 0.000000e+00)) ((-3.315613e-23 3.492744e-22 2.235843e-04) (-9.708314e-25 1.167794e-23 -5.734918e-07) (0.000000e+00 0.000000e+00 0.000000e+00))
87           	((1.248754e-03 -2.788591e-03 6.024928e-22) (3.209089e-05 2.908956e-06 4.633988e-23) (0.000000e+00 0.000000e+00 0.000000e+00)) ((-3.235978e-23 3.399446e-22 1.920794e-04) (-9.710059e-25 1.169442e-23 -5.657267e-07) (0.000000e+00 0.000000e+00 0.000000e+00))
88           	((1.246972e-03 -2.695192e-03 5.654278e-22) (3.188305e-05 2.879788e-06 4.606751e-23) (0.000000e+00 0.000000e+00 0.000000e+00)) ((-3.147506e-23 3.295890e-22 1.615783e-04) (-9.653181e-25 1.161177e-23 -5.609934e-07) (0.000000e+00 0.000000e+00 0.000000e+00))
89           	((1.244402e-03 -2.609173e-03 5.254270e-22) (3.167322e-05 2.849216e-06 4.588285e-23) (0.000000e+00 0.000000e+00 0.000000e+00)) ((-3.051755e-23 3.183873e-22 1.338827e-04) (-9.616403e-25 1.156282e-23 -5.562438e-07) (0.000000e+00 0.000000e+00 0.000000e+00))
90           	((1.241570e-03 -2.528327e-03 4.821460e-22) (3.147739e-05 2.797922e-06 4.594902e-23) (0.000000e+00 0.000000e+00 0.000000e+00)) ((-2.947674e-23 3.062213e-22 1.081404e-04) (-9.635309e-25 1.160131e-23 -5.413425e-07) (0.000000e+00 0.000000e+00 0.000000e+00))
91           	((1.237954e-03 -2.452338e-03 4.357821e-22) (3.124916e-05 2.761621e-06 4.570649e-23) (0.000000e+00 0.000000e+00 0.000000e+00)) ((-2.835671e-23 2.931403e-22 8.416100e-05) (-9.589112e-25 1.152910e-23 -5.350862e-07) (0.000000e+00 0.000000e+00 0.000000e+00))
92           	((1.233801e-03 -2.382697e-03 3.870352e-22) (3.102617e-05 2.733915e-06 4.565162e-23) (0.000000e+00 0.000000e+00 0.000000e+00)) ((-2.717422e-23 2.793402e-22 6.246895e-05) (-9.586877e-25 1.152158e-23 -5.334268e-07) (0.000000e+00 0.000000e+00 0.000000e+00))
93           	((1.229440e-03 -2.320846e-03 3.367816e-22) (3.082157e-05 2.689648e-06 4.570955e-23) (0.000000e+00 0.000000e+00 0.000000e+00)) ((-2.595009e-23 2.650650e-22 4.354726e-05) (-9.611221e-25 1.156385e-23 -5.233520e-07) (0.000000e+00 0.000000e+00 0.000000e+00))
94           	((1.224452e-03 -2.267210e-03 2.861997e-22) (3.058603e-05 2.661563e-06 4.544914e-23) (0.000000e+00 0.000000e+00 0.000000e+00)) ((-2.471079e-23 2.506280e-22 2.747997e-05) (-9.567977e-25 1.149791e-23 -5.221716e-07) (0.000000e+00 0.000000e+00 0.000000e+00))
95           	((1.219035e-03 -2.222379e-03 2.364269e-22) (3.035640e-05 2.641489e-06 4.552443e-23) (0.000000e+00 0.000000e+00 0.000000e+00)) ((-2.348410e-23 2.363532e-22 1.441175e-05) (-9.598831e-25 1.152912e-23 -5.248894e-07) (0.000000e+00 0.000000e+00 0.000000e+00))
96           	((1.213603e-03 -2.187535e-03 1.891730e-22) (3.016581e-05 2.600757e-06 4.539806e-23) (0.000000e+00 0.000000e+00 0.000000e+00)) ((-2.230924e-23 2.227028e-22 4.795228e-06) (-9.583124e-25 1.151631e-23 -5.164082e-07) (0.000000e+00 0.000000e+00 0.000000e+00))
97           	((1.207577e-03 -2.163674e-03 1.465370e-22) (2.995547e-05 2.572174e-06 4.521295e-23) (0.000000e+00 0.000000e+00 0.000000e+00)) ((-2.123431e-23 2.102445e-22 -1.046484e-06) (-9.560540e-25 1.149310e-23 -5.139199e-07) (0.000000e+00 0.000000e+00 0.000000e+00))
98           	((1.200885e-03 -2.151940e-03 1.102497e-22) (2.976066e-05 2.558774e-06 4.473010e-23) (0.000000e+00 0.000000e+00 0.000000e+00)) ((-2.030118e-23 1.994669e-22 -2.683774e-06) (-9.473146e-25 1.135811e-23 -5.180960e-07) (0.000000e+00 0.000000e+00 0.000000e+00))
99           	((1.194254e-03 -2.152239e-03 8.229679e-23) (2.962588e-05 2.506772e-06 4.437389e-23) (0.000000e+00 0.000000e+00 0.000000e+00)) ((-1.955536e-23 1.909068e-22 -1.502679e-07) (-9.405677e-25 1.129894e-23 -5.009285e-07) (0.000000e+00 0.000000e+00 0.000000e+00))
100          	((1.187121e-03 -2.164270e-03 6.382140e-23) (2.945717e-05 2.475517e-06 4.393989e-23) (0.000000e+00 0.000000e+00 0.000000e+00)) ((-1.902776e-23 1.849183e-22 6.298339e-06) (-9.316456e-25 1.120010e-23 -4.936680e-07) (0.000000e+00 0.000000e+00 0.000000e+00))
101          	((1.179546e-03 -2.187399e-03 5.601828e-23) (2.931287e-05 2.459776e-06 4.347515e-23) (0.000000e+00 0.000000e+00 0.000000e+00)) ((-1.874717e-23 1.818377e-22 1.642195e-05) (-9.220413e-25 1.107743e-23 -4.926624e-07) (0.000000e+00 0.000000e+00 0.000000e+00))
102          	((1.172347e-03 -2.222447e-03 5.962767e-23) (2.924484e-05 2.419557e-06 4.290457e-23) (0.000000e+00 0.000000e+00 0.000000e+00)) ((-1.873480e-23 1.819057e-22 3.053732e-05) (-9.095588e-25 1.094115e-23 -4.770050e-07) (0.000000e+00 0.000000e+00 0.000000e+00))
103          	((1.163749e-03 -2.275676e-03 7.610076e-23) (2.914650e-05 2.417410e-06 4.255829e-23) (0.000000e+00 0.000000e+00 0.000000e+00)) ((-1.902549e-23 1.855296e-22 5.127593e-05) (-9.013979e-25 1.082634e-23 -4.796167e-07) (0.000000e+00 0.000000e+00 0.000000e+00))
104          	((1.155726e-03 -2.333747e-03 1.024424e-22) (2.906120e-05 2.425093e-06 4.272085e-23) (0.000000e+00 0.000000e+00 0.000000e+00)) ((-1.955844e-23 1.919746e-22 7.306195e-05) (-9.028002e-25 1.088356e-23 -4.855620e-07) (0.000000e+00 0.000000e+00 0.000000e+00))
105          	((1.148807e-03 -2.398380e-03 1.387012e-22) (2.904109e-05 2.397568e-06 4.274216e-23) (0.000000e+00 0.000000e+00 0.000000e+00)) ((-2.033651e-23 2.012707e-22 9.665571e-05) (-9.025708e-25 1.085482e-23 -4.716609e-07) (0.000000e+00 0.000000e+00 0.000000e+00))
106          	((1.141933e-03 -2.471440e-03 1.832002e-22) (2.898006e-05 2.410697e-06 4.320141e-23) (0.000000e+00 0.000000e+00 0.000000e+00)) ((-2.132775e-23 2.130262e-22 1.228559e-04) (-9.104970e-25 1.095125e-23 -4.776626e-07) (0.000000e+00 0.000000e+00 0.000000e+00))
107          	((1.134686e-03 -2.556425e-03 2.341887e-22) (2.893177e-05 2.435885e-06 4.411026e-23) (0.000000e+00 0.000000e+00 0.000000e+00)) ((-2.249894e-23 2.268339e-22 1.531263e-04) (-9.274001e-25 1.118767e-23 -4.884466e-07) (0.000000e+00 0.000000e+00 0.000000e+00))
108          	((1.122421e-03 -2.695959e-03 2.929755e-22) (2.898753e-05 2.435028e-06 4.547876e-23) (0.000000e+00 0.000000e+00 0.000000e+00)) ((-2.390562e-23 2.432916e-22 2.048932e-04) (-9.549696e-25 1.148634e-23 -4.835715e-07) (0.000000e+00 0.000000e+00 0.000000e+00))
109          	((1.114957e-03 -2.797004e-03 3.472745e-22) (2.897126e-05 2.470956e-06 4.577817e-23) (0.000000e+00 0.000000e+00 0.000000e+00)) ((-2.520617e-23 2.585048e-22 2.410975e-04) (-9.609624e-25 1.157506e-23 -4.970770e-07) (0.000000e+00 0.000000e+00 0.000000e+00))
110          	((1.110894e-03 -2.869282e-03 3.999724e-22) (2.892381e-05 2.517240e-06 4.656006e-23) (0.000000e+00 0.000000e+00 0.000000e+00)) ((-2.648500e-23 2.734281e-22 2.655524e-04) (-9.771099e-25 1.175388e-23 -5.162181e-07) (0.000000e+00 0.000000e+00 0.000000e+00))
111          	((1.108239e-03 -2.932734e-03 4.520704e-22) (2.891772e-05 2.527620e-06 4.763237e-23) (0.000000e+00 0.000000e+00 0.000000e+00)) ((-2.777082e-23 2.883873e-22 2.865705e-04) (-9.985534e-25 1.202425e-23 -5.168892e-07) (0.000000e+00 0.000000e+00 0.000000e+00))