/*--------------------------------*- C++ -*----------------------------------*\
| =========                 |                                                 |
| \\      /  F ield         | OpenFOAM: The Open Source CFD Toolbox           |
|  \\    /   O peration     | Version:  5.x                                   |
|   \\  /    A nd           | Web:      www.OpenFOAM.org                      |
|    \\/     M anipulation  |                                                 |
\*---------------------------------------------------------------------------*/
FoamFile
{
    version     2.0;
    format      ascii;
    class       volVectorField;
    location    "213";
    object      U;
}
// * * * * * * * * * * * * * * * * * * * * * * * * * * * * * * * * * * * * * //

dimensions      [0 1 -1 0 0 0 0];

internalField   nonuniform List<vector> 
5760
(
(9.94143 -0.66161 0)
(9.88227 -0.589251 0)
(9.78978 -0.370753 0)
(9.66435 -0.213522 0)
(9.53489 -0.118109 0)
(9.41553 -0.063206 0)
(9.30865 -0.03203 0)
(9.21357 -0.0141726 0)
(9.12896 -0.00384479 0)
(9.05432 0.00224693 0)
(8.98775 0.00581742 0)
(8.92856 0.0079602 0)
(8.87508 0.00921565 0)
(8.82716 0.010008 0)
(8.7826 0.0105588 0)
(8.74413 0.0109374 0)
(8.69912 0.0118782 0)
(8.68543 0.0050545 0)
(10.0247 0.169436 0)
(10.0695 0.26673 0)
(10.0803 0.229875 0)
(10.0728 0.173811 0)
(10.0631 0.131425 0)
(10.0522 0.102013 0)
(10.0368 0.0815092 0)
(10.0168 0.0672252 0)
(9.99374 0.0572764 0)
(9.96875 0.0500667 0)
(9.94299 0.0446747 0)
(9.91673 0.0404931 0)
(9.89073 0.0371907 0)
(9.86507 0.0345655 0)
(9.8401 0.0323603 0)
(9.81631 0.0312168 0)
(9.79312 0.0292186 0)
(9.77529 0.0342564 0)
(9.99506 0.0288229 0)
(9.99994 0.0234558 0)
(10.0145 0.00634588 0)
(10.029 0.00616836 0)
(10.0406 0.0149046 0)
(10.0493 0.023003 0)
(10.0546 0.0284415 0)
(10.0566 0.0319878 0)
(10.056 0.0342575 0)
(10.0533 0.0355918 0)
(10.0493 0.0362599 0)
(10.044 0.0365009 0)
(10.0379 0.036473 0)
(10.0311 0.0363253 0)
(10.0239 0.0360934 0)
(10.0165 0.0360538 0)
(10.0091 0.0356963 0)
(10.0018 0.036568 0)
(9.99511 -0.00118479 0)
(9.99337 0.00825912 0)
(10.0056 0.019574 0)
(10.0185 0.030381 0)
(10.0281 0.0379216 0)
(10.0361 0.0414941 0)
(10.043 0.0426085 0)
(10.0486 0.0427215 0)
(10.0528 0.0424786 0)
(10.0561 0.0420563 0)
(10.0585 0.0415336 0)
(10.0601 0.0409758 0)
(10.0611 0.0404201 0)
(10.0616 0.0399083 0)
(10.0616 0.0394322 0)
(10.0613 0.03907 0)
(10.0608 0.0385877 0)
(10.0602 0.0384442 0)
(9.99843 0.000145918 0)
(9.99837 0.0150029 0)
(10.0063 0.0261255 0)
(10.0148 0.0312961 0)
(10.0216 0.0341223 0)
(10.0281 0.035859 0)
(10.0346 0.0368259 0)
(10.0405 0.0373729 0)
(10.0456 0.0377149 0)
(10.0501 0.0378998 0)
(10.0541 0.037948 0)
(10.0577 0.037897 0)
(10.0608 0.0377825 0)
(10.0635 0.0376378 0)
(10.066 0.0374704 0)
(10.0682 0.037304 0)
(10.0702 0.0370589 0)
(10.0722 0.0368432 0)
(9.99972 0.00306884 0)
(10.0009 0.0148272 0)
(10.0063 0.0227093 0)
(10.0128 0.0264458 0)
(10.0187 0.029265 0)
(10.0244 0.0316983 0)
(10.0301 0.0333758 0)
(10.0355 0.0343988 0)
(10.0404 0.0350338 0)
(10.0449 0.0354203 0)
(10.0491 0.0356216 0)
(10.0529 0.0356901 0)
(10.0565 0.0356703 0)
(10.0599 0.0355944 0)
(10.0631 0.0354736 0)
(10.0661 0.0353142 0)
(10.0689 0.0350851 0)
(10.0717 0.0348039 0)
(9.99999 0.00349666 0)
(10.0014 0.0121026 0)
(10.0056 0.018822 0)
(10.0113 0.0230543 0)
(10.0168 0.0262466 0)
(10.0219 0.028754 0)
(10.027 0.0304367 0)
(10.0319 0.0314603 0)
(10.0365 0.0320989 0)
(10.0407 0.0325039 0)
(10.0448 0.032738 0)
(10.0486 0.0328441 0)
(10.0522 0.0328589 0)
(10.0557 0.0328074 0)
(10.059 0.0326989 0)
(10.0621 0.0325347 0)
(10.0652 0.0323003 0)
(10.0681 0.0320056 0)
(10.0001 0.00321365 0)
(10.0015 0.0101192 0)
(10.005 0.0161176 0)
(10.0099 0.0203486 0)
(10.0148 0.0233628 0)
(10.0196 0.0256143 0)
(10.0242 0.0271978 0)
(10.0288 0.0282427 0)
(10.0331 0.0289312 0)
(10.0372 0.0293847 0)
(10.0411 0.0296629 0)
(10.0448 0.0298053 0)
(10.0483 0.0298449 0)
(10.0517 0.0298043 0)
(10.0549 0.0296948 0)
(10.0581 0.0295194 0)
(10.0611 0.0292714 0)
(10.064 0.0289671 0)
(10.0001 0.00284084 0)
(10.0015 0.00861609 0)
(10.0044 0.0137504 0)
(10.0086 0.0175872 0)
(10.013 0.020347 0)
(10.0174 0.0224214 0)
(10.0217 0.0239541 0)
(10.026 0.0250235 0)
(10.0301 0.0257458 0)
(10.034 0.0262236 0)
(10.0377 0.0265199 0)
(10.0413 0.0266748 0)
(10.0448 0.0267188 0)
(10.0481 0.0266734 0)
(10.0512 0.0265514 0)
(10.0543 0.0263587 0)
(10.0572 0.0260936 0)
(10.0601 0.0257798 0)
(10.0001 0.00238501 0)
(10.0014 0.00707183 0)
(10.0038 0.0112402 0)
(10.0073 0.014525 0)
(10.0112 0.0169903 0)
(10.0151 0.0188678 0)
(10.0191 0.0202823 0)
(10.0231 0.0213012 0)
(10.0269 0.0220074 0)
(10.0307 0.0224832 0)
(10.0342 0.0227865 0)
(10.0377 0.0229542 0)
(10.041 0.0230128 0)
(10.0442 0.0229813 0)
(10.0473 0.0228718 0)
(10.0502 0.0226918 0)
(10.053 0.0224411 0)
(10.0558 0.0221496 0)
(10.0001 0.00179488 0)
(10.0012 0.00525655 0)
(10.0032 0.00833915 0)
(10.006 0.0108737 0)
(10.0093 0.0128581 0)
(10.0128 0.0143946 0)
(10.0163 0.0155674 0)
(10.0199 0.0164304 0)
(10.0235 0.0170354 0)
(10.027 0.0174351 0)
(10.0304 0.0176725 0)
(10.0337 0.0177793 0)
(10.0368 0.01778 0)
(10.0399 0.0176934 0)
(10.0428 0.0175341 0)
(10.0456 0.0173135 0)
(10.0483 0.0170368 0)
(10.0509 0.0167317 0)
(10.0001 0.00109033 0)
(10.0009 0.00317704 0)
(10.0026 0.00503557 0)
(10.0049 0.00659595 0)
(10.0076 0.00785122 0)
(10.0107 0.00884553 0)
(10.0138 0.00963103 0)
(10.017 0.0102473 0)
(10.0202 0.0107234 0)
(10.0233 0.0110811 0)
(10.0264 0.0113368 0)
(10.0294 0.0115022 0)
(10.0324 0.0115867 0)
(10.0352 0.0115982 0)
(10.038 0.0115438 0)
(10.0406 0.0114305 0)
(10.0431 0.0112612 0)
(10.0456 0.0110688 0)
(10.0001 0.000277779 0)
(10.0008 0.000789121 0)
(10.0021 0.00120143 0)
(10.0041 0.00153817 0)
(10.0065 0.00182274 0)
(10.0093 0.00202952 0)
(10.0123 0.00212247 0)
(10.0153 0.00209579 0)
(10.0185 0.00197072 0)
(10.0216 0.00177537 0)
(10.0246 0.00153308 0)
(10.0275 0.00126092 0)
(10.0304 0.000971069 0)
(10.0331 0.000672125 0)
(10.0356 0.000369866 0)
(10.0381 6.83858e-05 0)
(10.0404 -0.000231262 0)
(10.0427 -0.00051663 0)
(10.0001 -0.000437638 0)
(10.0007 -0.00132238 0)
(10.002 -0.00235078 0)
(10.0041 -0.00338747 0)
(10.0066 -0.00420234 0)
(10.0092 -0.00469159 0)
(10.0117 -0.00488222 0)
(10.0144 -0.00486551 0)
(10.0171 -0.00474181 0)
(10.0199 -0.00458791 0)
(10.0227 -0.00444935 0)
(10.0255 -0.0043488 0)
(10.0283 -0.00429617 0)
(10.031 -0.00429426 0)
(10.0336 -0.00434169 0)
(10.0362 -0.00443435 0)
(10.0387 -0.00457024 0)
(10.0411 -0.00472885 0)
(10.0001 -0.000892596 0)
(10.0004 -0.00304869 0)
(10.0014 -0.00501327 0)
(10.0036 -0.00659082 0)
(10.0069 -0.00823541 0)
(10.0106 -0.0101158 0)
(10.0143 -0.0119643 0)
(10.0178 -0.0135122 0)
(10.0211 -0.0146908 0)
(10.0241 -0.0155499 0)
(10.0269 -0.0161571 0)
(10.0295 -0.0165691 0)
(10.0321 -0.0168351 0)
(10.0345 -0.0169981 0)
(10.0368 -0.0170922 0)
(10.039 -0.0171424 0)
(10.0411 -0.0171654 0)
(10.0431 -0.017171 0)
(9.99989 6.29686e-05 0)
(9.99993 -0.00520745 0)
(10.0015 -0.0104743 0)
(10.0037 -0.012062 0)
(10.0056 -0.0112672 0)
(10.0079 -0.010122 0)
(10.011 -0.00941988 0)
(10.0147 -0.00919194 0)
(10.0185 -0.00931883 0)
(10.0222 -0.00969478 0)
(10.0257 -0.0102279 0)
(10.0291 -0.0108427 0)
(10.0322 -0.0114855 0)
(10.0352 -0.0121223 0)
(10.038 -0.0127322 0)
(10.0406 -0.0133028 0)
(10.0431 -0.0138311 0)
(10.0455 -0.0143075 0)
(9.99693 0.00506281 0)
(9.99126 0.00105399 0)
(9.99546 -0.0112266 0)
(10.0035 -0.0236263 0)
(10.0093 -0.0322273 0)
(10.0128 -0.0366195 0)
(10.0157 -0.03802 0)
(10.0187 -0.0377861 0)
(10.0218 -0.0367979 0)
(10.0249 -0.0355032 0)
(10.0279 -0.034133 0)
(10.0309 -0.0328179 0)
(10.0338 -0.0316271 0)
(10.0366 -0.0305842 0)
(10.0392 -0.0296882 0)
(10.0417 -0.0289207 0)
(10.044 -0.0282607 0)
(10.0461 -0.0276743 0)
(9.99159 -0.00384765 0)
(9.97618 0.01319 0)
(9.97559 0.032693 0)
(9.98569 0.0377897 0)
(9.99863 0.0316354 0)
(10.0105 0.0222484 0)
(10.0202 0.0135268 0)
(10.0278 0.00615168 0)
(10.0336 3.90464e-05 0)
(10.038 -0.00489358 0)
(10.0413 -0.00876643 0)
(10.0438 -0.0117702 0)
(10.0456 -0.0140983 0)
(10.0469 -0.0159102 0)
(10.0477 -0.0173293 0)
(10.0481 -0.0184341 0)
(10.0484 -0.0192958 0)
(10.0483 -0.0197655 0)
(10.0108 -0.11115 0)
(10.032 -0.205561 0)
(10.0387 -0.202464 0)
(10.0375 -0.169722 0)
(10.0388 -0.138267 0)
(10.0428 -0.113006 0)
(10.0457 -0.0930314 0)
(10.0458 -0.0775788 0)
(10.0433 -0.0658952 0)
(10.039 -0.0570667 0)
(10.0334 -0.0503084 0)
(10.0268 -0.0450609 0)
(10.0196 -0.0409487 0)
(10.012 -0.0377015 0)
(10.0042 -0.0351412 0)
(9.99641 -0.0331768 0)
(9.9892 -0.0317707 0)
(9.98199 -0.0312093 0)
(9.98331 0.422658 0)
(9.99908 0.408358 0)
(9.98337 0.28192 0)
(9.93067 0.182005 0)
(9.86512 0.115509 0)
(9.80153 0.0730087 0)
(9.74323 0.0462835 0)
(9.69033 0.0293925 0)
(9.64282 0.018501 0)
(9.60046 0.01133 0)
(9.56263 0.00653236 0)
(9.52863 0.00327013 0)
(9.49786 0.00100681 0)
(9.46984 -0.000607673 0)
(9.4441 -0.00181006 0)
(9.42026 -0.00282379 0)
(9.39753 -0.00380908 0)
(9.37608 -0.00535579 0)
(0.0107706 -0.0171929 0)
(0.0318749 -0.016724 1.14144e-18)
(0.0410923 -0.00459204 0)
(0.0358304 0.00735663 -7.70218e-19)
(0.0202471 0.0147214 0)
(-0.00127615 0.0180079 0)
(-0.0262036 0.0193271 0)
(-0.0538412 0.0201458 0)
(-0.0841351 0.0209484 6.39622e-19)
(-0.117095 0.0217361 0)
(-0.152729 0.0224083 0)
(-0.191046 0.0228942 0)
(-0.232026 0.0232758 0)
(-0.275779 0.0235268 -3.40909e-19)
(-0.322164 0.0245596 0)
(-0.370813 0.0284524 0)
(-0.422141 0.0390878 2.59936e-19)
(-0.477018 0.0523294 0)
(-0.537692 0.0670728 2.41124e-19)
(-0.603018 0.0819104 2.33643e-19)
(-0.673886 0.0954779 0)
(-0.745604 0.0670982 0)
(-0.821735 0.0356083 0)
(-0.890393 0.0414577 0)
(-0.966432 0.0429523 0)
(-1.04411 0.0419321 0)
(-1.12078 0.0411995 2.06728e-19)
(-1.19714 0.0403032 0)
(-1.2727 0.0393575 0)
(-1.34737 0.0383747 -3.57808e-19)
(-1.42109 0.0373923 0)
(-1.4938 0.0364085 0)
(-1.56546 0.0354212 0)
(-1.63601 0.03442 0)
(-1.70536 0.0333945 2.96328e-19)
(-1.77341 0.0323333 2.86846e-19)
(-1.84003 0.0312264 2.78004e-19)
(-1.90506 0.0300649 0)
(-1.96833 0.0288417 2.6189e-19)
(-2.02967 0.0275521 0)
(-2.08885 0.0261928 0)
(-2.14569 0.0247623 0)
(-2.19994 0.0232602 0)
(-2.25139 0.021687 0)
(-2.29982 0.0200437 2.21465e-19)
(-2.34499 0.0183308 -2.15356e-19)
(-2.38668 0.0165477 2.09317e-19)
(-2.42466 0.0146908 0)
(-2.4587 0.0127524 0)
(-2.48855 0.0107178 0)
(-2.51396 0.00856558 0)
(-2.53462 0.00627658 0)
(-2.55021 0.00387684 0)
(-2.56025 0.00150081 0)
(-2.56431 -0.000641931 0)
(-2.56311 -0.00251571 0)
(-2.55725 -0.0042854 2.92628e-19)
(-2.54662 -0.00604203 2.7812e-19)
(-2.5312 -0.00778229 2.63074e-19)
(-2.51096 -0.00950517 -2.47454e-19)
(-2.48587 -0.0112052 0)
(-2.45595 -0.0128781 0)
(-2.42119 -0.0145186 -1.96774e-19)
(-2.38165 -0.0161222 -1.78484e-19)
(-2.33737 -0.0176838 0)
(-2.28844 -0.0191979 0)
(-2.23495 -0.0206589 1.18915e-19)
(-2.17702 -0.0220603 0)
(-2.1148 -0.0233965 0)
(-2.04848 -0.0246602 0)
(-1.97822 -0.0258504 0)
(-1.90421 -0.0269605 0)
(-1.82672 -0.0279816 -2.49042e-20)
(-1.74595 -0.0289306 -5.25719e-20)
(-1.66208 -0.0298142 0)
(-1.57534 -0.0306073 -1.11518e-19)
(-1.48599 -0.031307 0)
(-1.3943 -0.0319201 0)
(-1.30056 -0.0324492 0)
(-1.20501 -0.0328986 -4.91488e-19)
(-1.10792 -0.0332716 0)
(-1.00954 -0.0335735 6.44601e-19)
(-0.910096 -0.0338093 0)
(-0.80982 -0.0339865 8.12611e-19)
(-0.708917 -0.0341124 -9.02911e-19)
(-0.607571 -0.0341965 0)
(-0.505947 -0.0342478 0)
(-0.404179 -0.0342753 0)
(-0.302384 -0.034288 0)
(-0.200661 -0.0343048 0)
(-0.0990918 -0.0343207 0)
(0.00221928 -0.0339691 1.65126e-18)
(0.102879 -0.0329407 0)
(0.203091 -0.0316806 -1.63406e-18)
(0.303579 -0.0306103 0)
(0.402831 -0.0294127 -1.58049e-18)
(0.504523 -0.0286108 0)
(0.597528 -0.0261744 0)
(0.703396 -0.0249793 0)
(0.737098 -0.00662326 0)
(0.00718554 -0.042817 -2.19978e-18)
(0.0145757 -0.023308 -1.70235e-18)
(0.00880325 0.00144711 0)
(-0.00353273 0.0212718 3.18072e-19)
(-0.0224857 0.0347239 0)
(-0.0471031 0.0430188 0)
(-0.0763274 0.0484567 8.00268e-19)
(-0.109458 0.0527211 0)
(-0.146187 0.0565832 3.09467e-19)
(-0.18646 0.0602759 0)
(-0.230341 0.0638784 5.0304e-19)
(-0.27795 0.0674985 0)
(-0.329554 0.0713202 0)
(-0.385568 0.0754048 1.97053e-19)
(-0.446335 0.0796507 -3.68889e-19)
(-0.512362 0.0838953 0)
(-0.582865 0.0879066 -4.97074e-19)
(-0.657746 0.0913309 3.19453e-19)
(-0.736141 0.09377 -4.66698e-19)
(-0.816522 0.095989 -4.52461e-19)
(-0.894975 0.0979044 0)
(-0.977011 0.100624 0)
(-1.05387 0.102817 -2.81164e-19)
(-1.12864 0.103622 2.682e-19)
(-1.19958 0.102782 0)
(-1.26849 0.100906 -2.44503e-19)
(-1.33594 0.0984505 1.17005e-19)
(-1.40208 0.0958392 0)
(-1.46696 0.0931668 0)
(-1.53063 0.0904915 -2.0923e-19)
(-1.59308 0.08783 0)
(-1.65432 0.0851791 3.92581e-19)
(-1.7143 0.0825226 0)
(-1.77295 0.0798391 0)
(-1.8302 0.0771056 -1.7966e-19)
(-1.88594 0.0743005 -1.74546e-19)
(-1.94004 0.0714045 1.68763e-19)
(-1.99237 0.0684019 0)
(-2.04278 0.0652807 1.59625e-19)
(-2.09111 0.0620337 0)
(-2.13719 0.0586568 0)
(-2.18085 0.0551498 0)
(-2.22191 0.0515151 0)
(-2.26018 0.0477574 -2.7822e-19)
(-2.2955 0.0438834 1.34838e-19)
(-2.32769 0.0399009 1.31302e-19)
(-2.35657 0.0358184 1.26885e-19)
(-2.38197 0.0316434 2.46078e-19)
(-2.40373 0.0273827 -2.37949e-19)
(-2.4217 0.0230393 0)
(-2.43576 0.0186097 0)
(-2.44584 0.0140807 0)
(-2.45198 0.0094565 0)
(-2.45439 0.00483247 -3.91237e-19)
(-2.45343 0.000421537 3.72809e-19)
(-2.44859 -0.00369179 0)
(-2.4392 -0.00764215 -1.67044e-19)
(-2.42517 -0.0115169 1.58153e-19)
(-2.40646 -0.0153104 1.48311e-19)
(-2.38301 -0.0190155 1.3702e-19)
(-2.3548 -0.0226191 0)
(-2.32184 -0.0261094 0)
(-2.28414 -0.0294742 1.05318e-19)
(-2.24175 -0.0327027 -9.62596e-20)
(-2.1947 -0.0357839 0)
(-2.14309 -0.038707 0)
(-2.087 -0.0414612 -6.04891e-20)
(-2.02655 -0.0440349 0)
(-1.96189 -0.046418 0)
(-1.89318 -0.048601 0)
(-1.82061 -0.0505874 0)
(-1.74437 -0.0523786 -4.71064e-21)
(-1.66472 -0.0539406 1.13367e-20)
(-1.58186 -0.055288 6.80845e-20)
(-1.49596 -0.0564747 0)
(-1.40729 -0.0574696 4.8586e-20)
(-1.31609 -0.0582493 0)
(-1.22261 -0.0588281 0)
(-1.12714 -0.0592186 0)
(-1.02992 -0.0594331 1.97274e-19)
(-0.93121 -0.0594825 0)
(-0.831255 -0.0593802 -2.46982e-19)
(-0.730286 -0.0591395 0)
(-0.628519 -0.0587761 2.89782e-19)
(-0.526152 -0.0583062 3.20318e-19)
(-0.423363 -0.0577474 0)
(-0.320302 -0.0571176 0)
(-0.217096 -0.0564332 0)
(-0.113843 -0.055708 -8.23164e-19)
(-0.0106283 -0.054948 0)
(0.0925143 -0.054148 0)
(0.19559 -0.0531975 4.50882e-19)
(0.298575 -0.0520397 0)
(0.401466 -0.0508401 -4.68177e-19)
(0.504722 -0.0497993 0)
(0.607267 -0.0485907 -4.82771e-19)
(0.711581 -0.0475754 -9.82594e-19)
(0.809565 -0.0445567 -9.94547e-19)
(0.916174 -0.0409307 0)
(0.977505 -0.0159044 0)
(-0.00440262 -0.0466837 1.75233e-18)
(-0.00811879 -0.0119247 -7.79517e-19)
(-0.0220056 0.0184744 0)
(-0.0404017 0.0429843 -7.49352e-19)
(-0.0628929 0.0615621 0)
(-0.0897252 0.0751338 0)
(-0.121031 0.0854122 -5.17659e-19)
(-0.156642 0.0939835 0)
(-0.196376 0.101838 -4.28876e-19)
(-0.240185 0.109464 0)
(-0.288144 0.117104 -3.65492e-19)
(-0.340401 0.124926 0)
(-0.397051 0.133066 0)
(-0.457943 0.141453 0)
(-0.522618 0.149699 8.4263e-19)
(-0.590299 0.157197 0)
(-0.659745 0.163856 7.59971e-19)
(-0.730182 0.169774 -2.4293e-19)
(-0.8001 0.17422 2.33196e-19)
(-0.867751 0.176292 2.23665e-19)
(-0.932782 0.176165 0)
(-0.99678 0.17196 4.14172e-19)
(-1.06017 0.166248 5.89413e-19)
(-1.12272 0.162804 -1.88181e-19)
(-1.18324 0.15896 0)
(-1.2421 0.154744 5.1782e-19)
(-1.30002 0.150379 -1.66077e-19)
(-1.3571 0.145996 3.19379e-19)
(-1.41341 0.141644 0)
(-1.46897 0.137342 5.95441e-19)
(-1.52377 0.133082 0)
(-1.57774 0.128838 -2.78885e-19)
(-1.63084 0.124579 0)
(-1.68297 0.120269 0)
(-1.73403 0.115873 -2.53418e-19)
(-1.7839 0.111361 0)
(-1.83245 0.106706 -4.77821e-19)
(-1.87954 0.101887 0)
(-1.92502 0.0968903 -4.90822e-22)
(-1.9687 0.0917066 4.36613e-19)
(-2.01044 0.0863327 0)
(-2.05004 0.0807699 0)
(-2.08733 0.0750237 3.98677e-19)
(-2.12213 0.0691029 1.93519e-19)
(-2.15425 0.0630192 -5.61545e-19)
(-2.18351 0.0567868 0)
(-2.20974 0.0504212 1.74728e-19)
(-2.23278 0.0439394 -1.69016e-19)
(-2.25246 0.0373601 4.88353e-19)
(-2.26864 0.0307048 3.13198e-19)
(-2.28122 0.0240007 0)
(-2.29012 0.0172868 0)
(-2.29529 0.0106239 -2.75676e-19)
(-2.29669 0.00408566 5.25291e-19)
(-2.29419 -0.00230235 -2.48947e-19)
(-2.2875 -0.00857713 -2.35762e-19)
(-2.27642 -0.0147556 0)
(-2.26087 -0.02082 -4.15921e-19)
(-2.24079 -0.0267502 -1.93603e-19)
(-2.21612 -0.032527 0)
(-2.18686 -0.0381294 0)
(-2.153 -0.0435379 0)
(-2.11456 -0.0487334 0)
(-2.07156 -0.0536985 1.21668e-19)
(-2.02406 -0.0584165 2.16572e-19)
(-1.97214 -0.0628709 0)
(-1.91589 -0.0670455 1.57671e-19)
(-1.85541 -0.0709231 -1.28055e-19)
(-1.79085 -0.0744873 0)
(-1.72236 -0.0777237 0)
(-1.65013 -0.0806316 0)
(-1.57433 -0.0832115 2.86901e-21)
(-1.49524 -0.0854318 -2.02555e-20)
(-1.41302 -0.0873136 -7.63768e-20)
(-1.32788 -0.088913 -7.88907e-20)
(-1.24007 -0.0902021 0)
(-1.14981 -0.0911545 0)
(-1.05736 -0.0917872 0)
(-0.962978 -0.0921203 0)
(-0.866911 -0.0921733 2.20538e-19)
(-0.769403 -0.0919656 2.47657e-19)
(-0.67069 -0.0915185 0)
(-0.570992 -0.0908549 -3.00355e-19)
(-0.470517 -0.0899994 -3.29678e-19)
(-0.369454 -0.0889787 0)
(-0.267968 -0.0878201 0)
(-0.166202 -0.0865519 0)
(-0.0642695 -0.0851996 4.21625e-19)
(0.0377409 -0.0837897 4.44401e-19)
(0.13977 -0.0823397 0)
(0.241809 -0.0808603 0)
(0.343879 -0.0793513 -4.84237e-19)
(0.446123 -0.077873 0)
(0.548486 -0.0764664 5.07904e-19)
(0.651299 -0.0752068 0)
(0.753673 -0.0737417 -5.23074e-19)
(0.857528 -0.0722935 5.38021e-19)
(0.956392 -0.0685025 5.46826e-19)
(1.06236 -0.0630993 1.10964e-18)
(1.13746 -0.0356858 0)
(-0.0143049 -0.0326688 0)
(-0.0261831 0.00844396 1.17869e-18)
(-0.0456671 0.0426173 0)
(-0.0689079 0.0705911 5.63811e-19)
(-0.0949769 0.0931245 0)
(-0.124371 0.111124 -8.81391e-19)
(-0.157651 0.125895 -8.04899e-19)
(-0.194984 0.138768 0)
(-0.236343 0.150723 -6.85035e-19)
(-0.281669 0.162324 6.37088e-19)
(-0.330879 0.173837 5.95065e-19)
(-0.38379 0.185311 0)
(-0.439983 0.196572 0)
(-0.498727 0.207201 4.91479e-19)
(-0.559064 0.216588 -4.62663e-19)
(-0.620027 0.224152 0)
(-0.68083 0.229902 -8.30049e-19)
(-0.740797 0.234022 0)
(-0.799019 0.235995 0)
(-0.855166 0.235433 -3.59347e-19)
(-0.909628 0.232286 -3.43198e-19)
(-0.963352 0.226552 -3.27981e-19)
(-1.01698 0.219681 -1.06294e-23)
(-1.07033 0.213703 0)
(-1.12287 0.207972 0)
(-1.17463 0.202229 -2.75971e-19)
(-1.2259 0.196536 -2.65359e-19)
(-1.2767 0.19092 -2.55779e-19)
(-1.32708 0.185383 0)
(-1.37699 0.17991 -7.14564e-19)
(-1.42641 0.174467 0)
(-1.47525 0.169016 0)
(-1.52344 0.16351 0)
(-1.57087 0.157904 0)
(-1.61744 0.152154 6.07802e-19)
(-1.663 0.146223 0)
(-1.70743 0.14008 1.90689e-19)
(-1.75058 0.133699 -3.69549e-19)
(-1.79228 0.127063 -5.3791e-19)
(-1.83236 0.120163 -3.48051e-19)
(-1.87066 0.112995 0)
(-1.90699 0.105563 0)
(-1.94117 0.097876 -3.16905e-19)
(-1.97303 0.0899461 0)
(-2.00237 0.0817908 5.93428e-19)
(-2.02903 0.0734311 0)
(-2.05282 0.0648908 -5.9829e-23)
(-2.07359 0.0561965 0)
(-2.09117 0.0473784 3.75234e-23)
(-2.10543 0.0384709 -4.93939e-19)
(-2.11624 0.029514 0)
(-2.1235 0.0205568 0)
(-2.1271 0.01166 2.1645e-19)
(-2.12691 0.00287955 -2.05845e-19)
(-2.12277 -0.00577705 0)
(-2.1145 -0.0143322 1.83953e-19)
(-2.102 -0.0227759 0)
(-2.08519 -0.0310722 1.61839e-19)
(-2.06402 -0.0391878 0)
(-2.03844 -0.0470925 0)
(-2.00843 -0.0547569 0)
(-1.974 -0.0621534 0)
(-1.93514 -0.0692559 -2.1265e-19)
(-1.89191 -0.0760399 0)
(-1.84434 -0.0824823 -1.65611e-19)
(-1.79251 -0.088561 0)
(-1.73651 -0.0942538 1.81371e-21)
(-1.67644 -0.0995381 9.72043e-20)
(-1.61243 -0.104391 0)
(-1.54463 -0.108792 -5.38638e-20)
(-1.47322 -0.112735 0)
(-1.39839 -0.116218 -9.08965e-21)
(-1.32037 -0.119212 1.51794e-20)
(-1.23932 -0.121746 3.71273e-20)
(-1.15549 -0.123876 5.88037e-20)
(-1.06909 -0.125578 -7.79693e-20)
(-0.980331 -0.126824 0)
(-0.889472 -0.127632 0)
(-0.796753 -0.128029 0)
(-0.702415 -0.128042 -1.62176e-19)
(-0.606691 -0.127698 1.77175e-19)
(-0.509805 -0.127027 0)
(-0.411969 -0.126061 2.19072e-19)
(-0.31338 -0.124835 0)
(-0.214217 -0.123385 0)
(-0.114635 -0.121748 -5.38494e-19)
(-0.014767 -0.119966 0)
(0.0852806 -0.118076 -3.00569e-19)
(0.185435 -0.116116 0)
(0.285654 -0.114121 -6.4205e-19)
(0.385941 -0.112118 -6.62226e-19)
(0.486327 -0.110129 6.81121e-19)
(0.586992 -0.108217 0)
(0.687895 -0.106402 -7.16554e-19)
(0.789319 -0.104718 0)
(0.890492 -0.102821 7.50746e-19)
(0.993057 -0.10073 0)
(1.09158 -0.0961626 7.74586e-19)
(1.19679 -0.0890359 -2.90264e-21)
(1.27928 -0.0613013 -8.0553e-19)
(-0.0212231 -0.00670799 0)
(-0.0388306 0.0373721 0)
(-0.062746 0.0730421 0)
(-0.0900088 0.102931 -9.29972e-19)
(-0.119194 0.12819 0)
(-0.150797 0.14961 -1.88525e-22)
(-0.1855 0.168131 6.75447e-19)
(-0.223591 0.184759 0)
(-0.265079 0.200286 1.16569e-18)
(-0.309812 0.215163 -5.44647e-19)
(-0.357488 0.229512 -5.10655e-19)
(-0.407626 0.243164 0)
(-0.459536 0.255713 0)
(-0.512371 0.266613 -4.24454e-19)
(-0.565301 0.275331 -4.00412e-19)
(-0.617712 0.281563 0)
(-0.66923 0.285431 3.5799e-19)
(-0.719498 0.28712 0)
(-0.768227 0.286528 0)
(-0.815592 0.283683 3.07853e-19)
(-0.86206 0.278824 5.87674e-19)
(-0.908215 0.272355 5.61722e-19)
(-0.95447 0.265116 2.68705e-19)
(-1.00076 0.258103 0)
(-1.04683 0.251278 0)
(-1.09263 0.244548 0)
(-1.13822 0.237927 2.28328e-19)
(-1.18362 0.231409 0)
(-1.22879 0.224969 0)
(-1.2737 0.218571 4.10509e-19)
(-1.31827 0.212168 0)
(-1.36242 0.205708 -3.84177e-19)
(-1.40607 0.199137 0)
(-1.44909 0.192402 0)
(-1.49138 0.185453 -3.49542e-19)
(-1.53279 0.178247 0)
(-1.57318 0.170749 3.28736e-19)
(-1.6124 0.162932 4.26406e-23)
(-1.6503 0.154777 6.18741e-19)
(-1.6867 0.146275 3.00058e-19)
(-1.72142 0.137423 2.90966e-19)
(-1.7543 0.128229 0)
(-1.78516 0.118704 0)
(-1.81381 0.108865 -2.64557e-19)
(-1.84008 0.0987368 -5.11783e-19)
(-1.8638 0.0883465 4.94701e-19)
(-1.88479 0.0777262 -7.16227e-19)
(-1.9029 0.0669118 -4.60431e-19)
(-1.91798 0.0559435 2.218e-19)
(-1.92987 0.0448658 2.12782e-19)
(-1.93845 0.0337276 0)
(-1.9436 0.0225826 0)
(-1.94518 0.011488 0)
(-1.94305 0.000490436 0)
(-1.93706 -0.0103971 0)
(-1.92711 -0.0211739 0)
(-1.91309 -0.0318133 0)
(-1.89495 -0.0422701 -2.78681e-19)
(-1.87264 -0.0525014 0)
(-1.84611 -0.0624676 0)
(-1.81534 -0.0721313 2.20816e-19)
(-1.78034 -0.0814569 2.01418e-19)
(-1.74112 -0.0904113 3.62922e-19)
(-1.69771 -0.0989631 0)
(-1.65016 -0.107083 0)
(-1.59853 -0.114743 0)
(-1.54292 -0.121916 -2.0739e-19)
(-1.48341 -0.128574 -8.49917e-20)
(-1.42015 -0.134689 0)
(-1.35325 -0.140232 -1.29173e-21)
(-1.2829 -0.145193 0)
(-1.20928 -0.149563 -1.03072e-20)
(-1.1326 -0.153323 1.9164e-20)
(-1.05304 -0.1565 0)
(-0.970822 -0.159153 9.19429e-20)
(-0.886153 -0.161266 -6.23616e-20)
(-0.799247 -0.162806 0)
(-0.710339 -0.163795 0)
(-0.619662 -0.164265 2.30033e-19)
(-0.527444 -0.16425 0)
(-0.433907 -0.163785 -5.91745e-19)
(-0.339264 -0.162908 0)
(-0.243716 -0.16166 0)
(-0.147449 -0.160085 0)
(-0.0506301 -0.15823 0)
(0.046595 -0.156145 4.40477e-19)
(0.144103 -0.15388 -4.59912e-19)
(0.241802 -0.151486 0)
(0.339631 -0.149012 4.99725e-19)
(0.43756 -0.146501 2.25554e-21)
(0.535604 -0.144 5.36701e-19)
(0.633805 -0.141545 -5.5233e-19)
(0.732337 -0.139191 0)
(0.831181 -0.136952 5.81039e-19)
(0.93061 -0.134831 0)
(1.02995 -0.132498 -1.20798e-18)
(1.1307 -0.129798 0)
(1.22818 -0.124598 -1.87832e-18)
(1.33242 -0.116279 -6.39483e-19)
(1.41874 -0.0893871 6.49135e-19)
(-0.0254247 0.027738 0)
(-0.0470955 0.0728564 -1.5981e-18)
(-0.0743998 0.108436 0)
(-0.104667 0.138999 8.05278e-19)
(-0.136068 0.165868 0)
(-0.169024 0.18964 6.40151e-19)
(-0.204198 0.210912 -5.91503e-19)
(-0.241863 0.230334 0)
(-0.281988 0.248427 -5.14215e-19)
(-0.324323 0.265436 4.82665e-19)
(-0.368442 0.281303 0)
(-0.41377 0.295712 0)
(-0.459641 0.308189 4.02242e-19)
(-0.505398 0.318253 3.79193e-19)
(-0.550529 0.325576 -3.58369e-19)
(-0.594754 0.330103 0)
(-0.637969 0.332062 0)
(-0.680094 0.331743 0)
(-0.721142 0.329306 -5.79187e-19)
(-0.761371 0.324956 5.51843e-19)
(-0.801176 0.319027 -2.62836e-19)
(-0.840939 0.311965 -5.02586e-19)
(-0.880922 0.304339 6.30815e-22)
(-0.921121 0.296711 4.62194e-19)
(-0.9614 0.289205 4.43983e-19)
(-1.00169 0.28181 0)
(-1.04197 0.274526 -4.11512e-19)
(-1.08222 0.267329 -3.96946e-19)
(-1.12238 0.260181 0)
(-1.1624 0.253034 0)
(-1.20219 0.24583 0)
(-1.24166 0.23851 3.46946e-19)
(-1.28071 0.231013 0)
(-1.31923 0.223278 0)
(-1.35709 0.215254 0)
(-1.39415 0.206892 0)
(-1.43027 0.198154 1.49488e-22)
(-1.46531 0.189013 2.88779e-19)
(-1.49909 0.179449 1.58129e-22)
(-1.53146 0.169454 -2.71917e-19)
(-1.56224 0.159028 -2.63766e-19)
(-1.59127 0.14818 -5.11872e-19)
(-1.61838 0.136927 -4.96084e-19)
(-1.64338 0.125292 2.40026e-19)
(-1.66612 0.113304 2.32253e-19)
(-1.68642 0.100997 -4.49013e-19)
(-1.70414 0.0884119 -4.63294e-22)
(-1.7191 0.0755923 8.36522e-19)
(-1.73116 0.0625868 -4.02443e-19)
(-1.74019 0.049448 0)
(-1.74605 0.0362314 0)
(-1.74861 0.0229943 -3.55633e-19)
(-1.74774 0.00979352 -3.39521e-19)
(-1.74331 -0.00332544 0)
(-1.73519 -0.0163367 0)
(-1.72329 -0.0292194 0)
(-1.70754 -0.0419346 0)
(-1.68787 -0.0544307 -7.04838e-22)
(-1.66424 -0.066657 0)
(-1.63662 -0.0785661 -2.17707e-19)
(-1.60498 -0.0901128 -1.99333e-19)
(-1.56934 -0.101254 -3.64147e-19)
(-1.52969 -0.111951 -3.28846e-19)
(-1.48608 -0.122164 1.47193e-19)
(-1.43855 -0.13186 2.59174e-19)
(-1.38716 -0.141004 0)
(-1.332 -0.149564 -9.54131e-20)
(-1.27317 -0.157509 -7.80307e-20)
(-1.21076 -0.164804 -1.19725e-19)
(-1.14493 -0.171415 4.18098e-20)
(-1.07581 -0.177324 0)
(-1.00362 -0.182518 1.60364e-20)
(-0.928513 -0.186985 -3.23399e-20)
(-0.850687 -0.19075 0)
(-0.770364 -0.193878 -1.61877e-19)
(-0.687726 -0.196356 1.88135e-21)
(-0.602987 -0.198151 1.42387e-19)
(-0.516368 -0.199287 0)
(-0.428086 -0.199802 -2.03889e-19)
(-0.338357 -0.199736 0)
(-0.247392 -0.199133 2.60405e-19)
(-0.15539 -0.198037 0)
(-0.0625407 -0.1965 0)
(0.0309842 -0.194573 0)
(0.125028 -0.192314 0)
(0.219457 -0.189784 3.77981e-19)
(0.314163 -0.187044 7.9587e-19)
(0.409065 -0.184156 0)
(0.504112 -0.181178 -4.33496e-19)
(0.599288 -0.17817 1.34452e-18)
(0.694618 -0.175188 0)
(0.790154 -0.172286 0)
(0.886056 -0.169519 -9.77728e-19)
(0.982326 -0.166891 0)
(1.07925 -0.164378 1.02395e-18)
(1.17623 -0.161659 2.80064e-21)
(1.27473 -0.158454 0)
(1.37057 -0.152798 2.88782e-21)
(1.47353 -0.143802 0)
(1.56144 -0.118347 -1.11052e-18)
(-0.0274712 0.0676716 0)
(-0.0518972 0.112694 1.40051e-18)
(-0.0815346 0.147237 0)
(-0.113644 0.177553 7.2019e-19)
(-0.14618 0.205042 6.31203e-19)
(-0.179458 0.230098 0)
(-0.214044 0.253003 5.32134e-19)
(-0.250149 0.274076 0)
(-0.287694 0.293554 4.66016e-19)
(-0.326392 0.311475 4.38546e-19)
(-0.365814 0.327654 8.25117e-19)
(-0.405455 0.341731 0)
(-0.444823 0.353287 3.67597e-19)
(-0.483524 0.361991 -3.46307e-19)
(-0.521328 0.367715 6.54926e-19)
(-0.55818 0.370582 0)
(-0.594131 0.370911 5.8935e-19)
(-0.629261 0.369058 0)
(-0.6637 0.365316 5.32272e-19)
(-0.69769 0.359978 1.00374e-21)
(-0.731531 0.353387 0)
(-0.76549 0.345935 4.65073e-19)
(-0.799734 0.338034 6.99567e-22)
(-0.834284 0.330044 6.0626e-22)
(-0.869066 0.322115 -8.22787e-19)
(-0.904012 0.314271 0)
(-0.939074 0.306505 3.81828e-19)
(-0.974196 0.298789 3.68644e-19)
(-1.00931 0.291076 0)
(-1.04435 0.283309 0)
(-1.07922 0.275424 0)
(-1.11382 0.267354 0)
(-1.14805 0.259033 0)
(-1.18178 0.250399 0)
(-1.2149 0.241393 0)
(-1.24726 0.231966 0)
(-1.27873 0.222079 -2.78337e-19)
(-1.30915 0.211703 0)
(-1.33837 0.200819 -7.87958e-19)
(-1.36623 0.189423 5.1021e-19)
(-1.39256 0.177516 0)
(-1.41722 0.165111 9.60384e-19)
(-1.44004 0.152231 9.31218e-19)
(-1.46085 0.138902 0)
(-1.47949 0.125161 0)
(-1.49583 0.111049 4.22652e-19)
(-1.50969 0.0966134 4.07674e-19)
(-1.52095 0.0819045 -3.93219e-19)
(-1.52946 0.0669789 0)
(-1.53508 0.0518957 0)
(-1.5377 0.0367163 0)
(-1.53719 0.0215023 3.34298e-19)
(-1.53343 0.00631309 -5.95557e-22)
(-1.52631 -0.0088016 0)
(-1.51571 -0.0238031 -2.86869e-19)
(-1.50155 -0.0386551 0)
(-1.48377 -0.0533084 0)
(-1.46232 -0.0677055 2.36911e-19)
(-1.43717 -0.0817892 0)
(-1.40827 -0.0955053 -2.05033e-19)
(-1.37562 -0.108802 0)
(-1.33921 -0.121629 1.70595e-19)
(-1.29906 -0.133941 -1.55268e-19)
(-1.2552 -0.145694 1.3871e-19)
(-1.20768 -0.156847 -2.4181e-19)
(-1.15656 -0.167361 2.10193e-19)
(-1.10191 -0.177201 1.76145e-19)
(-1.04382 -0.186329 1.43617e-19)
(-0.982404 -0.194709 2.2404e-19)
(-0.91778 -0.2023 8.07374e-20)
(-0.850085 -0.209075 0)
(-0.779512 -0.215021 1.7949e-20)
(-0.706212 -0.220124 1.41199e-20)
(-0.630389 -0.224412 -4.29871e-20)
(-0.552237 -0.227957 7.40048e-20)
(-0.471935 -0.230747 2.04773e-19)
(-0.389687 -0.23275 -1.31467e-19)
(-0.305699 -0.233993 0)
(-0.220173 -0.234521 1.84824e-19)
(-0.133312 -0.234378 2.11041e-19)
(-0.0453117 -0.233615 0)
(0.0436435 -0.232285 2.60156e-19)
(0.133377 -0.230447 -2.81891e-19)
(0.22373 -0.228163 0)
(0.314562 -0.2255 0)
(0.405753 -0.222529 -3.4158e-19)
(0.497207 -0.219321 -1.07424e-18)
(0.588856 -0.215949 -7.47897e-19)
(0.680662 -0.212485 0)
(0.772618 -0.208998 -8.09143e-19)
(0.864763 -0.205558 0)
(0.957156 -0.202233 0)
(1.04995 -0.199079 2.16781e-21)
(1.14316 -0.196095 0)
(1.2371 -0.193234 -9.24453e-19)
(1.33124 -0.190186 9.42477e-19)
(1.42705 -0.18658 0)
(1.52073 -0.180633 9.73979e-19)
(1.62198 -0.171325 0)
(1.70994 -0.147609 9.97564e-19)
(-0.0281242 0.110793 3.22601e-18)
(-0.0540439 0.154943 0)
(-0.084886 0.187864 -8.21926e-19)
(-0.117682 0.217207 -6.59352e-19)
(-0.150282 0.244427 -5.7824e-19)
(-0.182877 0.269748 0)
(-0.215913 0.293195 0)
(-0.249537 0.314798 -9.16163e-19)
(-0.283652 0.334554 4.30841e-19)
(-0.317999 0.352346 -8.0981e-19)
(-0.352233 0.367921 9.45037e-22)
(-0.385997 0.380952 7.22696e-19)
(-0.418996 0.391138 -6.82477e-19)
(-0.45106 0.398304 -6.46814e-19)
(-0.482158 0.402477 0)
(-0.512371 0.403886 0)
(-0.541835 0.402897 -5.51884e-19)
(-0.570701 0.399899 0)
(-0.599141 0.39524 0)
(-0.627366 0.389247 9.08229e-22)
(-0.655602 0.382242 0)
(-0.684036 0.374554 -4.3866e-19)
(-0.712785 0.366493 6.92255e-22)
(-0.741871 0.358308 -8.10398e-19)
(-0.771252 0.350125 -5.62946e-22)
(-0.800864 0.341978 -3.76361e-19)
(-0.830645 0.333861 0)
(-0.860526 0.325738 0)
(-0.890429 0.31756 0)
(-0.920268 0.309262 6.57739e-19)
(-0.949949 0.300777 0)
(-0.979368 0.292033 0)
(-1.00841 0.282961 0)
(-1.03697 0.273495 0)
(-1.06491 0.263575 0)
(-1.09209 0.25315 0)