/*--------------------------------*- C++ -*----------------------------------*\
| =========                 |                                                 |
| \\      /  F ield         | OpenFOAM: The Open Source CFD Toolbox           |
|  \\    /   O peration     | Version:  5.x                                   |
|   \\  /    A nd           | Web:      www.OpenFOAM.org                      |
|    \\/     M anipulation  |                                                 |
\*---------------------------------------------------------------------------*/
FoamFile
{
    version     2.0;
    format      ascii;
    class       surfaceScalarField;
    location    "239";
    object      phi;
}
// * * * * * * * * * * * * * * * * * * * * * * * * * * * * * * * * * * * * * //

dimensions      [0 3 -1 0 0 0 0];

internalField   nonuniform List<scalar> 
11337
(
1.74728e-05
3.3744e-08
1.74073e-05
6.54503e-08
1.73349e-05
7.24264e-08
1.72624e-05
7.25066e-08
1.71887e-05
7.36472e-08
1.71173e-05
7.13453e-08
1.70509e-05
6.64539e-08
1.69899e-05
6.10146e-08
1.69341e-05
5.58018e-08
1.68832e-05
5.08892e-08
1.68368e-05
4.63168e-08
1.67948e-05
4.20796e-08
1.67566e-05
3.81279e-08
1.67221e-05
3.45307e-08
1.6691e-05
3.10816e-08
1.66626e-05
2.8432e-08
1.66363e-05
2.63205e-08
2.48069e-08
1.66115e-05
1.9376e-05
-1.35268e-08
1.93957e-05
4.57141e-08
1.94147e-05
5.34479e-08
1.943e-05
5.71822e-08
1.94428e-05
6.09086e-08
1.9453e-05
6.11503e-08
1.94604e-05
5.90392e-08
1.94649e-05
5.64261e-08
1.9467e-05
5.37586e-08
1.94668e-05
5.10885e-08
1.94647e-05
4.83461e-08
1.94612e-05
4.56364e-08
1.94564e-05
4.28932e-08
1.94507e-05
4.02674e-08
1.94443e-05
3.74663e-08
1.94376e-05
3.50926e-08
1.94325e-05
3.1498e-08
2.92577e-08
1.9428e-05
2.13348e-05
-7.64059e-09
2.13406e-05
3.98482e-08
2.13487e-05
4.5413e-08
2.13593e-05
4.65882e-08
2.13709e-05
4.92089e-08
2.13821e-05
5.00358e-08
2.1392e-05
4.91357e-08
2.14007e-05
4.76819e-08
2.14084e-05
4.60682e-08
2.14152e-05
4.42834e-08
2.14212e-05
4.23295e-08
2.14266e-05
4.02656e-08
2.14314e-05
3.8105e-08
2.14357e-05
3.5897e-08
2.14397e-05
3.34939e-08
2.14438e-05
3.10265e-08
2.14476e-05
2.76706e-08
2.43832e-08
2.14525e-05
2.35533e-05
1.05434e-09
2.35632e-05
2.99557e-08
2.35702e-05
3.83796e-08
2.35764e-05
4.04072e-08
2.35826e-05
4.29618e-08
2.35883e-05
4.43255e-08
2.35935e-05
4.39483e-08
2.35985e-05
4.26941e-08
2.36035e-05
4.11191e-08
2.36084e-05
3.93558e-08
2.36133e-05
3.74387e-08
2.36181e-05
3.5416e-08
2.36229e-05
3.33027e-08
2.36277e-05
3.11046e-08
2.36325e-05
2.87224e-08
2.36373e-05
2.61534e-08
2.3642e-05
2.30515e-08
1.97033e-08
2.36466e-05
2.60113e-05
4.31286e-09
2.60189e-05
2.23956e-08
2.60239e-05
3.32968e-08
2.60276e-05
3.67402e-08
2.60318e-05
3.8756e-08
2.60363e-05
3.97903e-08
2.60409e-05
3.93875e-08
2.60455e-05
3.80993e-08
2.60501e-05
3.64881e-08
2.60547e-05
3.4731e-08
2.60593e-05
3.2849e-08
2.60639e-05
3.08585e-08
2.60684e-05
2.87695e-08
2.60729e-05
2.65747e-08
2.60774e-05
2.42175e-08
2.60819e-05
2.16714e-08
2.60862e-05
1.87752e-08
1.55865e-08
2.60903e-05
2.87218e-05
4.9176e-09
2.87262e-05
1.80381e-08
2.8731e-05
2.84368e-08
2.87354e-05
3.23398e-08
2.87403e-05
3.38495e-08
2.87455e-05
3.45956e-08
2.87505e-05
3.43574e-08
2.87553e-05
3.33199e-08
2.87599e-05
3.18922e-08
2.87643e-05
3.02653e-08
2.87687e-05
2.84775e-08
2.8773e-05
2.65487e-08
2.87773e-05
2.45008e-08
2.87815e-05
2.23389e-08
2.87857e-05
2.00437e-08
2.87898e-05
1.76019e-08
2.87936e-05
1.49729e-08
1.22702e-08
2.87969e-05
3.17123e-05
4.70782e-09
3.17154e-05
1.49265e-08
3.17204e-05
2.34139e-08
3.17254e-05
2.73346e-08
3.17305e-05
2.88202e-08
3.17356e-05
2.94911e-08
3.17405e-05
2.93844e-08
3.17453e-05
2.85247e-08
3.175e-05
2.72e-08
3.17546e-05
2.56237e-08
3.17592e-05
2.38758e-08
3.17638e-05
2.19918e-08
3.17683e-05
1.99984e-08
3.17727e-05
1.79141e-08
3.1777e-05
1.5738e-08
3.17811e-05
1.34803e-08
3.1785e-05
1.11372e-08
8.78194e-09
3.17885e-05
3.50136e-05
4.11581e-09
3.50164e-05
1.2112e-08
3.50211e-05
1.86952e-08
3.50261e-05
2.23359e-08
3.50311e-05
2.38302e-08
3.50362e-05
2.43436e-08
3.50415e-05
2.41554e-08
3.50467e-05
2.33275e-08
3.50518e-05
2.20592e-08
3.50569e-05
2.05439e-08
3.50619e-05
1.8873e-08
3.50668e-05
1.70864e-08
3.50716e-05
1.52113e-08
3.50762e-05
1.32692e-08
3.50807e-05
1.12788e-08
3.50849e-05
9.26105e-09
3.50888e-05
7.2387e-09
5.29656e-09
3.50922e-05
3.61488e-05
3.36868e-09
3.61513e-05
9.59699e-09
3.61554e-05
1.46486e-08
3.616e-05
1.77233e-08
3.61648e-05
1.90316e-08
3.61698e-05
1.9336e-08
3.61749e-05
1.90221e-08
3.61801e-05
1.81974e-08
3.61851e-05
1.69964e-08
3.61901e-05
1.55592e-08
3.6195e-05
1.39766e-08
3.61998e-05
1.22917e-08
3.62044e-05
1.05376e-08
3.6209e-05
8.74247e-09
3.62133e-05
6.93398e-09
3.62174e-05
5.1407e-09
3.62213e-05
3.3894e-09
1.76112e-09
3.62248e-05
5.11222e-05
2.31401e-09
5.11252e-05
6.53998e-09
5.113e-05
9.87834e-09
5.11358e-05
1.1962e-08
5.1142e-05
1.27956e-08
5.11485e-05
1.2796e-08
5.11552e-05
1.22913e-08
5.1162e-05
1.14111e-08
5.11688e-05
1.02364e-08
5.11755e-05
8.86628e-09
5.11821e-05
7.3794e-09
5.11885e-05
5.82904e-09
5.11948e-05
4.2492e-09
5.12009e-05
2.67087e-09
5.12067e-05
1.11713e-09
5.12122e-05
-3.87429e-10
5.12174e-05
-1.83472e-09
-3.17673e-09
5.12224e-05
7.22975e-05
1.00232e-09
7.23011e-05
2.9088e-09
7.23067e-05
4.29392e-09
7.23137e-05
4.99455e-09
7.23215e-05
5.0001e-09
7.23298e-05
4.48192e-09
7.23384e-05
3.61774e-09
7.23473e-05
2.50816e-09
7.23563e-05
1.22126e-09
7.23654e-05
-1.70299e-10
7.23743e-05
-1.60106e-09
7.23832e-05
-3.02349e-09
7.23918e-05
-4.40517e-09
7.24002e-05
-5.7184e-09
7.24083e-05
-6.9396e-09
7.24159e-05
-8.04257e-09
7.24231e-05
-9.01621e-09
-9.80643e-09
7.24297e-05
0.000102244
-5.24752e-10
0.000102248
-1.31958e-09
0.000102255
-2.22616e-09
0.000102263
-3.33819e-09
0.000102272
-4.58808e-09
0.000102283
-5.85873e-09
0.000102293
-7.09658e-09
0.000102304
-8.31089e-09
0.000102315
-9.52742e-09
0.000102326
-1.07571e-08
0.000102336
-1.19945e-08
0.000102346
-1.32257e-08
0.000102356
-1.44357e-08
0.000102366
-1.56091e-08
0.000102376
-1.67318e-08
0.000102386
-1.77871e-08
0.000102395
-1.87717e-08
-1.96107e-08
0.000102405
0.000144594
-2.28472e-09
0.000144599
-6.22574e-09
0.000144607
-9.90594e-09
0.000144617
-1.35636e-08
0.00014463
-1.72239e-08
0.000144644
-2.07778e-08
0.000144661
-2.40131e-08
0.00014468
-2.67295e-08
0.000144699
-2.88573e-08
0.000144719
-3.04485e-08
0.000144738
-3.15963e-08
0.000144758
-3.23814e-08
0.000144776
-3.28621e-08
0.000144793
-3.30819e-08
0.00014481
-3.30758e-08
0.000144825
-3.28703e-08
0.000144839
-3.25069e-08
-3.19767e-08
0.000144851
0.000104595
-3.08925e-09
0.000104598
-9.03193e-09
0.000104603
-1.53848e-08
0.00010461
-2.03226e-08
0.000104616
-2.34447e-08
0.000104621
-2.58083e-08
0.000104625
-2.81685e-08
0.000104629
-3.06069e-08
0.000104633
-3.29721e-08
0.000104638
-3.51529e-08
0.000104644
-3.71017e-08
0.00010465
-3.88063e-08
0.000104657
-4.02761e-08
0.000104666
-4.15385e-08
0.000104675
-4.2631e-08
0.000104686
-4.35972e-08
0.000104698
-4.44784e-08
-4.52877e-08
0.000104711
8.30167e-05
-3.343e-09
8.30162e-05
-8.47447e-09
8.30191e-05
-1.83465e-08
8.30265e-05
-2.77273e-08
8.30376e-05
-3.4548e-08
8.3051e-05
-3.91704e-08
8.3065e-05
-4.22203e-08
8.30787e-05
-4.42316e-08
8.30914e-05
-4.56618e-08
8.3103e-05
-4.6795e-08
8.31136e-05
-4.77427e-08
8.31233e-05
-4.85251e-08
8.31322e-05
-4.91385e-08
8.31402e-05
-4.95692e-08
8.31474e-05
-4.97906e-08
8.31535e-05
-4.97592e-08
8.31585e-05
-4.94176e-08
-4.87235e-08
8.31619e-05
6.58893e-05
-2.45231e-09
6.58928e-05
-1.19811e-08
6.58942e-05
-1.96784e-08
6.58914e-05
-2.49933e-08
6.5888e-05
-3.11238e-08
6.58865e-05
-3.76573e-08
6.58874e-05
-4.3183e-08
6.58905e-05
-4.73233e-08
6.58953e-05
-5.03837e-08
6.59011e-05
-5.26948e-08
6.59079e-05
-5.44546e-08
6.59151e-05
-5.57807e-08
6.59227e-05
-5.67763e-08
6.59307e-05
-5.75103e-08
6.59389e-05
-5.80598e-08
6.59477e-05
-5.84868e-08
6.59572e-05
-5.89272e-08
-5.94278e-08
6.59679e-05
5.22775e-05
1.71267e-08
5.22883e-05
-2.27879e-08
5.23053e-05
-3.66296e-08
5.23197e-05
-3.9424e-08
5.23303e-05
-4.16817e-08
5.23373e-05
-4.47421e-08
5.23418e-05
-4.76089e-08
5.23446e-05
-5.02025e-08
5.23469e-05
-5.25942e-08
5.23489e-05
-5.4776e-08
5.23511e-05
-5.66138e-08
5.23534e-05
-5.8139e-08
5.2356e-05
-5.93529e-08
5.23588e-05
-6.03169e-08
5.23618e-05
-6.10154e-08
5.23647e-05
-6.14072e-08
5.23672e-05
-6.14099e-08
-6.06924e-08
5.23684e-05
4.1476e-05
4.9363e-08
4.14582e-05
-4.94816e-09
4.14527e-05
-3.11509e-08
4.14571e-05
-4.37943e-08
4.14678e-05
-5.24325e-08
4.14812e-05
-5.81571e-08
4.14949e-05
-6.13503e-08
4.15081e-05
-6.3383e-08
4.15207e-05
-6.51608e-08
4.15327e-05
-6.67951e-08
4.15443e-05
-6.81967e-08
4.15555e-05
-6.93488e-08
4.15664e-05
-7.02781e-08
4.15771e-05
-7.10349e-08
4.15878e-05
-7.16539e-08
4.15985e-05
-7.2158e-08
4.16097e-05
-7.25724e-08
-7.23016e-08
4.16213e-05
3.29903e-05
4.2289e-09
3.29944e-05
-9.11138e-09
3.30095e-05
-4.62256e-08
3.30294e-05
-6.36677e-08
3.30558e-05
-7.89045e-08
3.30878e-05
-9.01851e-08
3.31234e-05
-9.69316e-08
3.31608e-05
-1.00769e-07
3.31989e-05
-1.03294e-07
3.32371e-05
-1.0495e-07
3.32748e-05
-1.0596e-07
3.33119e-05
-1.06382e-07
3.3348e-05
-1.06386e-07
3.3383e-05
-1.06097e-07
3.34171e-05
-1.05726e-07
3.34508e-05
-1.05811e-07
3.34849e-05
-1.06716e-07
-1.11297e-07
3.35239e-05
2.61528e-05
2.61437e-05
2.60974e-05
2.60338e-05
2.59549e-05
2.58647e-05
2.57678e-05
2.5667e-05
2.55637e-05
2.54587e-05
2.53528e-05
2.52464e-05
2.514e-05
2.50339e-05
2.49282e-05
2.48224e-05
2.47157e-05
2.46044e-05
1.2239e-07
-1.22417e-07
2.49828e-07
-1.27477e-07
3.52782e-07
-1.0297e-07
4.35094e-07
-8.23475e-08
4.91247e-07
-5.61503e-08
5.02429e-07
-1.11737e-08
4.78222e-07
2.42378e-08
4.2818e-07
5.00813e-08
3.6065e-07
6.75593e-08
2.79147e-07
8.15396e-08
1.81881e-07
9.72761e-08
6.48819e-08
1.17014e-07
-7.69227e-08
1.41793e-07
-2.51479e-07
1.74545e-07
-4.63745e-07
2.12251e-07
-7.14864e-07
2.51108e-07
-1.00321e-06
2.88342e-07
-1.32416e-06
3.20939e-07
-1.67106e-06
3.46902e-07
-2.03648e-06
3.65417e-07
-2.4132e-06
3.76715e-07
-2.79495e-06
3.81747e-07
-3.17678e-06
3.81828e-07
-3.55516e-06
3.78385e-07
-3.92788e-06
3.72713e-07
-4.29375e-06
3.65868e-07
-4.65238e-06
3.58626e-07
-5.00389e-06
3.51503e-07
-5.34868e-06
3.44786e-07
-5.68729e-06
3.38594e-07
-6.02022e-06
3.32922e-07
-6.34792e-06
3.27684e-07
-6.67068e-06
3.22747e-07
-6.98864e-06
3.1795e-07
-7.30178e-06
3.13123e-07
-7.60989e-06
3.08097e-07
-7.91261e-06
3.02713e-07
-8.20944e-06
2.96822e-07
-8.49975e-06
2.90295e-07
-8.78279e-06
2.8302e-07
-9.05771e-06
2.74906e-07
-9.32361e-06
2.6588e-07
-9.57952e-06
2.55889e-07
-9.82443e-06
2.44895e-07
-1.00573e-05
2.3288e-07
-1.02772e-05
2.19833e-07
-1.04829e-05
2.05764e-07
-1.06736e-05
1.90687e-07
-1.08482e-05
1.74625e-07
-1.10058e-05
1.57597e-07
-1.11453e-05
1.39617e-07
-1.1266e-05
1.20678e-07
-1.13667e-05
1.00737e-07
-1.14463e-05
7.96669e-08
-1.15034e-05
5.71752e-08
-1.15362e-05
3.28747e-08
-1.15433e-05
7.16524e-09
-1.15262e-05
-1.69943e-08
-1.14877e-05
-3.84327e-08
-1.14286e-05
-5.91286e-08
-1.13487e-05
-7.98467e-08
-1.12481e-05
-1.0059e-07
-1.11268e-05
-1.21306e-07
-1.09849e-05
-1.41906e-07
-1.08227e-05
-1.62312e-07
-1.06403e-05
-1.82436e-07
-1.04382e-05
-2.02197e-07
-1.02168e-05
-2.21511e-07
-9.97664e-06
-2.40289e-07
-9.7183e-06
-2.58444e-07
-9.44246e-06
-2.75884e-07
-9.14992e-06
-2.92546e-07
-8.84152e-06
-3.08352e-07
-8.51816e-06
-3.23292e-07
-8.18066e-06
-3.37422e-07
-7.82999e-06
-3.50574e-07
-7.46717e-06
-3.62715e-07
-7.09288e-06
-3.74171e-07
-6.70804e-06
-3.84715e-07
-6.3138e-06
-3.94107e-07
-5.91123e-06
-4.02423e-07
-5.50137e-06
-4.09696e-07
-5.08524e-06
-4.15965e-07
-4.6638e-06
-4.2126e-07
-4.23799e-06
-4.2563e-07
-3.80866e-06
-4.29121e-07
-3.37666e-06
-4.31815e-07
-2.94268e-06
-4.33784e-07
-2.50735e-06
-4.35146e-07
-2.07116e-06
-4.35998e-07
-1.63447e-06
-4.36518e-07
-1.19757e-06
-4.36729e-07
-7.60323e-07
-4.3708e-07
-3.23369e-07
-4.36808e-07
1.14105e-07
-4.37331e-07
5.47846e-07
-4.33638e-07
9.85485e-07
-4.37534e-07
1.398e-06
-4.12492e-07
1.81504e-06
-4.16958e-07
-1.38022e-07
1.95307e-06
1.28577e-07
-2.51018e-07
2.22239e-07
-2.21167e-07
2.74154e-07
-1.54907e-07
2.83313e-07
-9.15241e-08
2.58972e-07
-3.18119e-08
2.18526e-07
2.92806e-08
1.57366e-07
8.54148e-08
7.20606e-08
1.35407e-07
-4.07677e-08
1.80405e-07
-1.84102e-07
2.24887e-07
-3.60997e-07
2.74178e-07
-5.75134e-07
3.31153e-07
-8.28435e-07
3.95091e-07
-1.11702e-06
4.63122e-07
-1.43622e-06
5.31442e-07
-1.78026e-06
5.95145e-07
-2.14147e-06
6.4955e-07
-2.51202e-06
6.91492e-07
-2.88492e-06
7.19792e-07
-3.25454e-06
7.35043e-07
-3.61704e-06
7.39213e-07
-3.97022e-06
7.34929e-07
-4.3131e-06
7.24699e-07
-4.64562e-06
7.10904e-07
-4.96834e-06
6.95437e-07
-5.28213e-06
6.79653e-07
-5.58792e-06
6.64416e-07
-5.88661e-06
6.50191e-07
-6.17897e-06
6.37138e-07
-6.46559e-06
6.25206e-07
-6.74689e-06
6.14214e-07
-7.02311e-06
6.03895e-07
-7.29431e-06
5.93945e-07
-7.56043e-06
5.84053e-07
-7.82122e-06
5.73909e-07
-8.07635e-06
5.6322e-07
-8.32536e-06
5.51717e-07
-8.56771e-06
5.3916e-07
-8.80276e-06
5.25341e-07
-9.02984e-06
5.10086e-07
-9.2482e-06
4.93254e-07
-9.45707e-06
4.74734e-07
-9.65565e-06
4.5445e-07
-9.84311e-06
4.3235e-07
-1.00186e-05
4.08412e-07
-1.01815e-05
3.82634e-07
-1.03307e-05
3.55036e-07
-1.04657e-05
3.25655e-07
-1.05856e-05
2.9454e-07
-1.06897e-05
2.61744e-07
-1.07774e-05
2.27328e-07
-1.0848e-05
1.91348e-07
-1.09011e-05
1.53862e-07
-1.09363e-05
1.14931e-07
-1.09538e-05
7.46784e-08
-1.09544e-05
3.35111e-08
-1.09395e-05
-7.64837e-09
-1.09083e-05
-4.82259e-08
-1.0858e-05
-8.86411e-08
-1.07878e-05
-1.29309e-07
-1.06975e-05
-1.70192e-07
-1.05869e-05
-2.11161e-07
-1.04561e-05
-2.52074e-07
-1.03053e-05
-2.9276e-07
-1.01346e-05
-3.33058e-07
-9.94427e-06
-3.72798e-07
-9.7347e-06
-4.1182e-07
-9.50633e-06
-4.4996e-07
-9.25963e-06
-4.87051e-07
-8.99521e-06
-5.22925e-07
-8.7137e-06
-5.57415e-07
-8.41587e-06
-5.90367e-07
-8.10255e-06
-6.21642e-07
-7.77458e-06
-6.51208e-07
-7.43285e-06
-6.79093e-07
-7.07833e-06
-7.05021e-07
-6.71191e-06
-7.29063e-07
-6.33433e-06
-7.51658e-07
-5.94652e-06
-7.72432e-07
-5.5495e-06
-7.91012e-07
-5.14434e-06
-8.07478e-07
-4.73202e-06
-8.21889e-07
-4.31353e-06
-8.34322e-07
-3.88981e-06
-8.44837e-07
-3.46177e-06
-8.53532e-07
-3.03024e-06
-8.60503e-07
-2.59601e-06
-8.65897e-07
-2.15978e-06
-8.6987e-07
-1.72215e-06
-8.72643e-07
-1.28357e-06
-8.74435e-07
-8.44411e-07
-8.75561e-07
-4.04825e-07
-8.76205e-07
3.50681e-08
-8.76871e-07
4.75413e-07
-8.77071e-07
9.15815e-07
-8.77658e-07
1.35623e-06
-8.74011e-07
1.79307e-06
-8.74327e-07
2.22369e-06
-8.43105e-07
2.62143e-06
-8.14666e-07
-4.7456e-07
2.95795e-06
8.80719e-08
-3.39108e-07
1.29651e-07
-2.62768e-07
1.28222e-07
-1.53496e-07
9.42191e-08
-5.75334e-08
3.37511e-08
2.86533e-08
-4.67326e-08
1.0977e-07
-1.48119e-07
1.86812e-07
-2.73765e-07
2.61064e-07
-4.28185e-07
3.34835e-07
-6.14828e-07
4.11537e-07
-8.34652e-07
4.94004e-07
-1.08586e-06
5.82366e-07
-1.36429e-06
6.73514e-07
-1.66365e-06
7.62476e-07
-1.97629e-06
8.44077e-07
-2.29477e-06
9.1362e-07
-2.61297e-06
9.67751e-07
-2.92661e-06
1.00513e-06
-3.2332e-06
1.02639e-06
-3.53181e-06
1.03365e-06
-3.82242e-06
1.02982e-06
-4.1055e-06
1.01801e-06
-4.38198e-06
1.00118e-06
-4.6528e-06
9.81729e-07
-4.91879e-06
9.61428e-07
-5.18062e-06
9.4148e-07
-5.4388e-06
9.22594e-07
-5.69369e-06
9.05085e-07
-5.94554e-06
8.88981e-07
-6.19446e-06
8.74118e-07
-6.44046e-06
8.60209e-07
-6.68346e-06
8.46893e-07
-6.9233e-06
8.33772e-07
-7.15969e-06
8.20442e-07
-7.3923e-06
8.06507e-07
-7.62067e-06
7.91593e-07
-7.84431e-06
7.75352e-07
-8.06264e-06
7.57476e-07
-8.27499e-06
7.37692e-07
-8.48069e-06
7.15771e-07
-8.67897e-06
6.91526e-07
-8.86906e-06
6.64813e-07
-9.05015e-06
6.35525e-07
-9.22141e-06
6.03599e-07
-9.382e-06
5.69002e-07
-9.53111e-06
5.31739e-07
-9.66792e-06
4.91842e-07
-9.79163e-06
4.49371e-07
-9.90148e-06
4.04408e-07
-9.99678e-06
3.57053e-07
-1.00769e-05
3.07424e-07
-1.01411e-05
2.55662e-07
-1.01892e-05
2.01937e-07
-1.02207e-05
1.46462e-07
-1.02355e-05
8.95493e-08
-1.02337e-05
3.1692e-08
-1.02147e-05
-2.65446e-08
-1.01778e-05
-8.51323e-08
-1.0122e-05
-1.44394e-07
-1.0047e-05
-2.04305e-07
-9.95255e-06
-2.64622e-07
-9.8386e-06
-3.251e-07
-9.70518e-06
-3.85502e-07
-9.55238e-06
-4.45574e-07
-9.38038e-06
-5.05075e-07
-9.18946e-06
-5.63757e-07
-8.97994e-06
-6.21379e-07
-8.75225e-06
-6.77702e-07
-8.50686e-06
-7.32487e-07
-8.24433e-06
-7.85494e-07
-7.96528e-06
-8.36483e-07
-7.67043e-06
-8.85222e-07
-7.36055e-06
-9.315e-07
-7.03649e-06
-9.75248e-07
-6.69913e-06
-1.01643e-06
-6.34938e-06
-1.05475e-06
-5.98807e-06
-1.09036e-06
-5.616e-06
-1.1237e-06
-5.23405e-06
-1.15436e-06
-4.84318e-06
-1.18186e-06
-4.44439e-06
-1.20625e-06
-4.03864e-06
-1.22761e-06
-3.62689e-06
-1.24605e-06
-3.21004e-06
-1.26167e-06
-2.78895e-06
-1.27459e-06
-2.36445e-06
-1.28498e-06
-1.93728e-06
-1.29304e-06
-1.50812e-06
-1.29901e-06
-1.07754e-06
-1.3032e-06
-6.45982e-07
-1.30597e-06
-2.13767e-07
-1.30775e-06
2.18957e-07
-1.30891e-06
6.52099e-07
-1.30999e-06
1.0858e-06
-1.31076e-06
1.51984e-06
-1.31166e-06
1.95447e-06
-1.30862e-06
2.38611e-06
-1.30594e-06
2.81384e-06
-1.27083e-06
3.21794e-06
-1.21875e-06
-8.69243e-07
3.61265e-06
4.37834e-08
-3.82906e-07
2.09191e-08
-2.39921e-07
-2.68739e-08
-1.05716e-07
-9.45612e-08
1.01454e-08
-1.81611e-07
1.15701e-07
-2.88003e-07
2.16166e-07
-4.15654e-07
3.14469e-07
-5.6734e-07
4.12758e-07
-7.45479e-07
5.12981e-07
-9.50577e-07
6.16639e-07
-1.18031e-06
7.23736e-07
-1.42985e-06
8.31912e-07
-1.69304e-06
9.367e-07
-1.96343e-06
1.03286e-06
-2.23502e-06
1.11567e-06
-2.50319e-06
1.18179e-06
-2.76524e-06
1.22979e-06
-3.02017e-06
1.26006e-06
-3.26829e-06
1.27451e-06
-3.51058e-06
1.27594e-06
-3.74827e-06
1.26751e-06
-3.98254e-06
1.25228e-06
-4.21434e-06
1.23298e-06
-4.44433e-06
1.21172e-06
-4.67293e-06
1.19003e-06
-4.90039e-06
1.16894e-06
-5.12679e-06
1.149e-06
-5.35214e-06
1.13043e-06
-5.57633e-06
1.11317e-06
-5.79923e-06
1.09701e-06
-6.02062e-06
1.08159e-06
-6.24024e-06
1.06651e-06
-6.4578e-06
1.05132e-06
-6.67291e-06
1.03556e-06
-6.88517e-06
1.01876e-06
-7.09407e-06
1.00049e-06
-7.29907e-06
9.80347e-07
-7.49956e-06
9.57955e-07
-7.69486e-06
9.3299e-07
-7.88427e-06
9.05172e-07
-8.06703e-06
8.74273e-07
-8.24234e-06
8.40114e-07
-8.40939e-06
8.02567e-07
-8.56735e-06
7.61552e-07
-8.71539e-06
7.17034e-07
-8.85268e-06
6.69024e-07
-8.9784e-06
6.17568e-07
-9.09178e-06
5.62754e-07
-9.19206e-06
5.04697e-07
-9.27854e-06
4.43549e-07
-9.35059e-06
3.79484e-07
-9.40762e-06
3.12717e-07
-9.44916e-06
2.43499e-07
-9.4748e-06
1.72133e-07
-9.48421e-06
9.89873e-08
-9.477e-06
2.45045e-08
-9.45256e-06
-5.09486e-08
-9.41029e-06
-1.27385e-07
-9.34975e-06
-2.04911e-07
-9.27069e-06
-2.83341e-07
-9.17297e-06
-3.62332e-07
-9.05651e-06
-4.41556e-07
-8.92133e-06
-5.20682e-07
-8.76753e-06
-5.99386e-07
-8.59528e-06
-6.77342e-07
-8.40484e-06
-7.54231e-07
-8.19652e-06
-8.29732e-07
-7.97072e-06
-9.03535e-07
-7.72792e-06
-9.7533e-07
-7.46863e-06
-1.04481e-06
-7.19344e-06
-1.11167e-06
-6.90304e-06
-1.17561e-06
-6.59817e-06
-1.23635e-06
-6.27964e-06
-1.29376e-06
-5.94832e-06
-1.34772e-06
-5.60508e-06
-1.39796e-06
-5.25068e-06
-1.44471e-06
-4.88598e-06
-1.48837e-06
-4.51179e-06
-1.5285e-06
-4.12905e-06
-1.56456e-06
-3.73868e-06
-1.59657e-06
-3.34162e-06
-1.62462e-06
-2.93877e-06
-1.64884e-06
-2.53102e-06
-1.66937e-06
-2.11918e-06
-1.68637e-06
-1.70404e-06
-1.70006e-06
-1.28633e-06
-1.7107e-06
-8.6667e-07
-1.71861e-06
-4.45613e-07
-1.72421e-06
-2.35699e-08
-1.72797e-06
3.9916e-07
-1.73044e-06
8.22449e-07
-1.73216e-06
1.24625e-06
-1.73376e-06
1.6707e-06
-1.73518e-06
2.09571e-06
-1.73666e-06
2.52155e-06
-1.73446e-06
2.94545e-06
-1.72983e-06
3.36709e-06
-1.69248e-06
3.77514e-06
-1.6268e-06
-1.28829e-06
4.19418e-06
-1.84666e-08
-3.64451e-07
-9.01381e-08
-1.68261e-07
-1.70367e-07
-2.54963e-08
-2.62018e-07
1.0179e-07
-3.68514e-07
2.22195e-07
-4.92333e-07
3.39988e-07
-6.35492e-07
4.57632e-07
-7.99317e-07
5.76588e-07
-9.83835e-07
6.97503e-07
-1.18711e-06
8.19919e-07
-1.40517e-06
9.41798e-07
-1.6327e-06
1.05944e-06
-1.86418e-06
1.16817e-06
-2.09478e-06
1.26346e-06
-2.32106e-06
1.34194e-06
-2.54117e-06
1.4019e-06
-2.75478e-06
1.44339e-06
-2.96261e-06
1.46789e-06
-3.16599e-06
1.47789e-06
-3.36637e-06
1.47632e-06
-3.56509e-06
1.46623e-06
-3.76319e-06
1.45038e-06
-3.96134e-06
1.43114e-06
-4.15992e-06
1.4103e-06
-4.35907e-06
1.38919e-06
-4.55879e-06
1.36865e-06
-4.75893e-06
1.34915e-06
-4.95932e-06
1.33081e-06
-5.1597e-06
1.31355e-06
-5.35978e-06
1.29709e-06
-5.55926e-06
1.28107e-06
-5.75779e-06
1.26504e-06
-5.95498e-06
1.2485e-06
-6.15039e-06
1.23096e-06
-6.34355e-06
1.21192e-06
-6.53394e-06
1.19088e-06
-6.72098e-06
1.16738e-06
-6.90404e-06
1.14101e-06
-7.08245e-06
1.11139e-06
-7.25549e-06
1.0782e-06
-7.42239e-06
1.04117e-06
-7.58237e-06
1.00009e-06
-7.73463e-06
9.54812e-07
-7.87833e-06
9.05253e-07
-8.01268e-06
8.51374e-07
-8.13685e-06
7.93192e-07
-8.25006e-06
7.30776e-07
-8.35154e-06
6.64237e-07
-8.44057e-06
5.93731e-07
-8.51645e-06
5.19449e-07
-8.57858e-06
4.41624e-07
-8.62637e-06
3.60527e-07
-8.65931e-06
2.7647e-07
-8.67695e-06
1.89803e-07
-8.67885e-06
1.00914e-07
-8.66452e-06
1.02073e-08
-8.63343e-06
-8.20121e-08
-8.58512e-06
-1.7567e-07
-8.5193e-06
-2.70705e-07
-8.43579e-06
-3.66834e-07
-8.33445e-06
-4.63657e-07
-8.21523e-06
-5.60768e-07
-8.07815e-06
-6.57763e-07
-7.9233e-06
-7.54243e-07
-7.75086e-06
-8.49809e-07
-7.56105e-06
-9.44064e-07
-7.35419e-06
-1.03662e-06
-7.13067e-06
-1.12709e-06
-6.89092e-06
-1.21511e-06
-6.63546e-06
-1.3003e-06
-6.36484e-06
-1.3823e-06
-6.0797e-06
-1.46075e-06
-5.78075e-06
-1.5353e-06
-5.46876e-06
-1.60574e-06
-5.14459e-06
-1.67188e-06
-4.80902e-06
-1.73352e-06
-4.46286e-06
-1.79087e-06
-4.10689e-06
-1.84433e-06
-3.74192e-06
-1.89347e-06
-3.36882e-06
-1.93766e-06
-2.98848e-06
-1.97691e-06
-2.60179e-06
-2.01131e-06
-2.2096e-06
-2.04103e-06
-1.81274e-06
-2.06623e-06
-1.41202e-06
-2.08711e-06
-1.00815e-06
-2.10393e-06
-6.01833e-07
-2.11703e-06
-1.93655e-07
-2.1268e-06
2.15877e-07
-2.13375e-06
6.26375e-07
-2.13847e-06
1.03759e-06
-2.14166e-06
1.44942e-06
-2.14399e-06
1.86185e-06
-2.14619e-06
2.27506e-06
-2.14838e-06
2.68907e-06
-2.15065e-06
3.10416e-06
-2.14953e-06
3.51834e-06
-2.14399e-06
3.9321e-06
-2.10623e-06
4.33958e-06
-2.03425e-06
-1.7171e-06
4.76842e-06
-9.32695e-08
-2.71188e-07
-1.8476e-07
-7.67792e-08
-2.84799e-07
7.4537e-08
-3.9405e-07
2.11037e-07
-5.14741e-07
3.42884e-07
-6.49129e-07
4.74377e-07
-7.98572e-07
6.07078e-07
-9.63151e-07
7.4117e-07
-1.14142e-06
8.75778e-07
-1.3304e-06
1.0089e-06
-1.52596e-06
1.13736e-06
-1.72364e-06
1.25713e-06
-1.91954e-06
1.36407e-06
-2.11089e-06
1.45481e-06
-2.29629e-06
1.52734e-06
-2.47565e-06
1.58125e-06
-2.64979e-06
1.61753e-06
-2.82009e-06
1.6382e-06
-2.98808e-06
1.64588e-06
-3.15517e-06
1.64341e-06
-3.32247e-06
1.63354e-06
-3.49081e-06
1.61872e-06
-3.66063e-06
1.60096e-06
-3.83215e-06
1.58182e-06
-4.00537e-06
1.56241e-06
-4.18016e-06
1.54344e-06
-4.35627e-06
1.52527e-06
-4.53344e-06
1.50797e-06
-4.71131e-06
1.49142e-06
-4.88954e-06
1.47532e-06
-5.06774e-06
1.45927e-06
-5.2455e-06
1.44279e-06
-5.42239e-06
1.42539e-06
-5.59794e-06
1.40651e-06
-5.77164e-06
1.38561e-06
-5.94294e-06
1.36218e-06
-6.11125e-06
1.33569e-06
-6.27595e-06
1.3057e-06
-6.43634e-06
1.27178e-06
-6.59171e-06
1.23356e-06
-6.74132e-06
1.19076e-06
-6.88439e-06
1.14315e-06
-7.02013e-06
1.09055e-06
-7.14777e-06
1.03288e-06
-7.2665e-06
9.70099e-07
-7.37555e-06
9.02241e-07
-7.47417e-06
8.29394e-07
-7.56162e-06
7.51696e-07
-7.63723e-06
6.69341e-07
-7.70033e-06
5.82561e-07
-7.75032e-06
4.91637e-07
-7.78666e-06
3.96886e-07
-7.80884e-06
2.98667e-07
-7.81638e-06
1.97365e-07
-7.80882e-06
9.3385e-08
-7.78571e-06
-1.28771e-08
-7.74658e-06
-1.21114e-07
-7.69108e-06
-2.31145e-07
-7.61899e-06
-3.42782e-07
-7.53014e-06
-4.55667e-07
-7.42443e-06
-5.69354e-07
-7.30182e-06
-6.83371e-07
-7.16234e-06
-7.97248e-07
-7.00607e-06
-9.10516e-07
-6.83319e-06
-1.02271e-06
-6.64391e-06
-1.13336e-06
-6.43855e-06
-1.24201e-06
-6.21746e-06
-1.34821e-06
-5.98107e-06
-1.45153e-06
-5.72985e-06
-1.55153e-06
-5.46436e-06
-1.6478e-06
-5.18517e-06
-1.73993e-06
-4.89294e-06
-1.8275e-06
-4.58844e-06
-1.91023e-06
-4.27244e-06
-1.98786e-06
-3.9457e-06
-2.06023e-06
-3.60902e-06
-2.12753e-06
-3.26313e-06
-2.1902e-06
-2.9088e-06
-2.24777e-06
-2.54687e-06
-2.29957e-06
-2.17816e-06
-2.34559e-06
-1.80351e-06
-2.38594e-06
-1.42372e-06
-2.42079e-06
-1.03958e-06
-2.45035e-06
-6.51813e-07
-2.47485e-06
-2.61122e-07
-2.4946e-06
1.31864e-07
-2.50999e-06
5.26594e-07
-2.5215e-06
9.22612e-07
-2.52974e-06
1.31958e-06
-2.53542e-06
1.71728e-06
-2.53935e-06
2.11566e-06
-2.54236e-06
2.51475e-06
-2.54528e-06
2.91478e-06
-2.54841e-06
3.31587e-06
-2.55174e-06
3.71837e-06
-2.55204e-06
4.12099e-06
-2.54662e-06
4.52503e-06
-2.51028e-06
4.92796e-06
-2.43718e-06
-2.14707e-06
5.35792e-06
-1.25574e-07
-1.45616e-07
-2.45014e-07
4.26565e-08
-3.64314e-07
1.93833e-07
-4.87267e-07
3.33987e-07
-6.16967e-07
4.72582e-07
-7.55492e-07
6.12902e-07
-9.03643e-07
7.5523e-07
-1.06081e-06
8.98345e-07
-1.22506e-06
1.04003e-06
-1.39343e-06
1.17727e-06
-1.56253e-06
1.30645e-06
-1.72923e-06
1.42383e-06
-1.89126e-06
1.5261e-06
-2.04746e-06
1.61101e-06
-2.19778e-06
1.67767e-06
-2.34303e-06
1.7265e-06
-2.48451e-06
1.75901e-06
-2.62372e-06
1.77741e-06
-2.76211e-06
1.78427e-06
-2.9009e-06
1.7822e-06
-3.04101e-06
1.77365e-06
-3.18307e-06
1.76077e-06
-3.32739e-06
1.74529e-06
-3.4741e-06
1.72853e-06
-3.62313e-06
1.71144e-06
-3.77429e-06
1.69459e-06
-3.92729e-06
1.67827e-06
-4.08179e-06
1.66248e-06
-4.23743e-06
1.64706e-06
-4.39379e-06
1.63168e-06
-4.55045e-06
1.61592e-06
-4.70695e-06
1.5993e-06
-4.86284e-06
1.58127e-06
-5.01761e-06
1.56127e-06
-5.17073e-06
1.53873e-06
-5.32165e-06
1.51309e-06
-5.46977e-06
1.48381e-06
-5.61446e-06
1.45038e-06
-5.75504e-06
1.41236e-06
-5.89083e-06
1.36934e-06
-6.02109e-06
1.32102e-06
-6.14509e-06
1.26713e-06
-6.26208e-06
1.20753e-06
-6.3713e-06
1.14209e-06
-6.47202e-06
1.07081e-06
-6.56351e-06
9.93726e-07
-6.64507e-06
9.1095e-07
-6.71602e-06
8.22653e-07
-6.77573e-06
7.29058e-07
-6.8236e-06
6.3044e-07
-6.85906e-06
5.2712e-07
-6.88161e-06
4.19457e-07
-6.89077e-06
3.07847e-07
-6.88608e-06
1.92707e-07
-6.86713e-06
7.44601e-08
-6.83349e-06
-4.64834e-08
-6.78479e-06
-1.69784e-07
-6.72075e-06
-2.95167e-07
-6.64116e-06
-4.22342e-07
-6.54592e-06
-5.50894e-07
-6.43493e-06
-6.8033e-07
-6.30817e-06
-8.10124e-07
-6.16567e-06
-9.39746e-07
-6.00753e-06
-1.06867e-06
-5.8339e-06
-1.19635e-06
-5.64501e-06
-1.32228e-06
-5.44113e-06
-1.44592e-06
-5.22261e-06
-1.56676e-06
-4.98986e-06
-1.68431e-06
-4.74333e-06
-1.79807e-06
-4.48352e-06
-1.90761e-06
-4.21099e-06
-2.01246e-06
-3.92635e-06
-2.11214e-06
-3.63029e-06
-2.20629e-06
-3.32353e-06
-2.29462e-06
-3.00683e-06
-2.37693e-06
-2.68093e-06
-2.45344e-06
-2.34652e-06
-2.52461e-06
-2.00433e-06
-2.58997e-06
-1.65515e-06
-2.64877e-06
-1.29973e-06
-2.70101e-06
-9.3886e-07
-2.74683e-06
-5.73275e-07
-2.78639e-06
-2.03697e-07
-2.81994e-06
1.6919e-07
-2.84775e-06
5.44751e-07
-2.87018e-06
9.22417e-07
-2.88767e-06
1.30169e-06
-2.9008e-06
1.68218e-06
-2.91025e-06
2.06358e-06
-2.91684e-06
2.44574e-06
-2.92151e-06
2.82865e-06
-2.92527e-06
3.2124e-06
-2.92903e-06
3.59729e-06
-2.93329e-06
3.98354e-06
-2.93797e-06
4.37162e-06
-2.9401e-06
4.76085e-06
-2.93583e-06
5.15324e-06
-2.90266e-06
5.5482e-06
-2.83211e-06
-2.57213e-06
5.97329e-06
-1.43964e-07
-1.65135e-09
-2.81621e-07
1.80313e-07
-4.13689e-07
3.25899e-07
-5.44653e-07
4.6495e-07
-6.77704e-07
6.05633e-07
-8.14575e-07
7.49773e-07
-9.55681e-07
8.96338e-07
-1.10021e-06
1.04288e-06
-1.24637e-06
1.18619e-06
-1.39179e-06
1.3227e-06
-1.53413e-06
1.44879e-06
-1.67155e-06
1.56124e-06
-1.80305e-06
1.6576e-06
-1.92856e-06
1.73653e-06
-2.04879e-06
1.79789e-06
-2.16492e-06
1.84263e-06
-2.27841e-06
1.87249e-06
-2.39069e-06
1.88969e-06
-2.50306e-06
1.89663e-06
-2.61656e-06
1.8957e-06
-2.73196e-06
1.88906e-06
-2.84974e-06
1.87856e-06
-2.97016e-06
1.86571e-06
-3.09326e-06
1.85163e-06
-3.21894e-06
1.83712e-06
-3.34698e-06
1.82264e-06
-3.47708e-06
1.80837e-06
-3.60888e-06
1.79428e-06
-3.74196e-06
1.78014e-06
-3.87589e-06
1.76561e-06
-4.01022e-06
1.75024e-06
-4.14445e-06
1.73353e-06
-4.27811e-06
1.71492e-06
-4.41066e-06
1.69382e-06
-4.54157e-06
1.66965e-06
-4.67029e-06
1.64181e-06
-4.79623e-06
1.60974e-06
-4.91877e-06
1.57291e-06
-5.03726e-06
1.53084e-06
-5.15103e-06
1.48311e-06
-5.25941e-06
1.42938e-06
-5.3617e-06
1.36941e-06
-5.45721e-06
1.30302e-06
-5.54525e-06
1.23013e-06
-5.62515e-06
1.15071e-06
-5.69626e-06
1.06483e-06
-5.75796e-06
9.7264e-07
-5.80963e-06
8.74327e-07
-5.85071e-06
7.70149e-07
-5.88068e-06
6.60421e-07
-5.89904e-06
5.45495e-07
-5.90533e-06
4.2577e-07
-5.89913e-06
3.01671e-07
-5.88004e-06
1.73644e-07
-5.84769e-06
4.21391e-08
-5.80173e-06
-9.24162e-08
-5.74185e-06
-2.29637e-07
-5.66782e-06
-3.69173e-07
-5.5795e-06
-5.10649e-07
-5.47677e-06
-6.53606e-07
-5.35958e-06
-7.97506e-07
-5.22792e-06
-9.41782e-07
-5.08182e-06
-1.08584e-06
-4.92139e-06
-1.22911e-06
-4.74676e-06
-1.37099e-06
-4.55816e-06
-1.51091e-06
-4.35583e-06
-1.64827e-06
-4.14012e-06
-1.7825e-06
-3.91138e-06
-1.91306e-06
-3.67006e-06
-2.03941e-06
-3.41662e-06
-2.16105e-06
-3.15156e-06
-2.27751e-06
-2.87546e-06
-2.38824e-06
-2.58891e-06
-2.49282e-06
-2.29258e-06
-2.59093e-06
-1.98722e-06
-2.68228e-06
-1.67351e-06
-2.76713e-06
-1.35207e-06
-2.84604e-06
-1.02361e-06
-2.91841e-06
-6.88844e-07
-2.98352e-06
-3.48477e-07
-3.04137e-06
-3.20465e-09
-3.09209e-06
3.46291e-07
-3.13588e-06
6.99359e-07
-3.173e-06
1.05539e-06
-3.20377e-06
1.4138e-06
-3.22859e-06
1.77411e-06
-3.24797e-06
2.13587e-06
-3.26255e-06
2.49874e-06
-3.27311e-06
2.8625e-06
-3.28059e-06
3.22704e-06
-3.28606e-06
3.59242e-06
-3.29065e-06
3.95881e-06
-3.29543e-06
4.32657e-06
-3.30106e-06
4.69604e-06
-3.30745e-06
5.06784e-06
-3.31192e-06
5.44181e-06
-3.30981e-06
5.82058e-06
-3.28144e-06
6.20458e-06
-3.21611e-06
-2.98786e-06
6.62031e-06
-1.53916e-07
1.52271e-07
-3.00142e-07
3.2654e-07
-4.37867e-07
4.63624e-07
-5.71021e-07
5.98104e-07
-7.02234e-07
7.36847e-07
-8.32786e-07
8.80326e-07
-9.62873e-07
1.02643e-06
-1.09178e-06
1.17179e-06
-1.21818e-06
1.31258e-06
-1.34048e-06
1.445e-06
-1.45735e-06
1.56566e-06
-1.56798e-06
1.67186e-06
-1.67226e-06
1.76188e-06
-1.77079e-06
1.83505e-06
-1.86463e-06
1.89173e-06
-1.95514e-06
1.93314e-06
-2.04373e-06
1.96108e-06
-2.13174e-06
1.97769e-06
-2.22032e-06
1.98521e-06
-2.31036e-06
1.98574e-06
-2.40252e-06
1.98121e-06