/*--------------------------------*- C++ -*----------------------------------*\
| =========                 |                                                 |
| \\      /  F ield         | OpenFOAM: The Open Source CFD Toolbox           |
|  \\    /   O peration     | Version:  5.x                                   |
|   \\  /    A nd           | Web:      www.OpenFOAM.org                      |
|    \\/     M anipulation  |                                                 |
\*---------------------------------------------------------------------------*/
FoamFile
{
    version     2.0;
    format      ascii;
    class       volScalarField;
    location    "231";
    object      epsilon;
}
// * * * * * * * * * * * * * * * * * * * * * * * * * * * * * * * * * * * * * //

dimensions      [0 2 -3 0 0 0 0];

internalField   nonuniform List<scalar> 
5760
(
155.12
153.063
152.037
150.321
149.361
147.765
147.057
145.794
145.424
144.736
144.682
144.732
145.06
145.37
146.405
146.971
148.78
149.228
21.0033
31.129
37.4085
41.7726
45.2107
48.7897
52.247
56.342
60.4192
65.4242
70.192
76.1969
81.5349
88.5574
94.1746
102.245
108.195
119.425
15.3993
16.3641
18.2339
20.016
21.2959
22.6765
23.6701
24.9486
25.8534
27.1885
28.089
29.5576
30.4906
32.1172
33.1258
34.8206
36.2662
38.3443
14.849
14.8655
15.0524
15.3421
15.6246
16.0573
16.3455
16.7876
17.063
17.507
17.7728
18.2207
18.4838
18.9373
19.2057
19.6569
19.9703
20.4579
14.8232
14.7738
14.726
14.7137
14.7198
14.7456
14.7787
14.8467
14.8946
14.9866
15.0429
15.1504
15.2115
15.3282
15.3947
15.5146
15.5912
15.7285
14.8235
14.7692
14.7107
14.6637
14.614
14.5779
14.5379
14.513
14.4841
14.4686
14.4502
14.4419
14.433
14.4297
14.4293
14.4305
14.438
14.4515
14.8244
14.7681
14.7111
14.6602
14.6083
14.5623
14.5156
14.4746
14.433
14.397
14.3602
14.3288
14.2964
14.2696
14.2408
14.2184
14.1926
14.1744
14.8249
14.7675
14.7116
14.6594
14.6085
14.5609
14.5145
14.4712
14.429
14.3896
14.3511
14.3153
14.2803
14.2478
14.216
14.1865
14.1576
14.1309
14.8251
14.7673
14.7117
14.6591
14.6085
14.5605
14.5145
14.4707
14.4287
14.3887
14.3504
14.3139
14.2789
14.2456
14.2136
14.1831
14.1539
14.126
14.8252
14.7672
14.7118
14.6589
14.6085
14.5604
14.5144
14.4705
14.4285
14.3885
14.3501
14.3136
14.2785
14.2451
14.213
14.1825
14.1531
14.1251
14.8252
14.7671
14.7117
14.6589
14.6084
14.5602
14.5142
14.4703
14.4283
14.3882
14.3499
14.3132
14.2782
14.2447
14.2126
14.182
14.1526
14.1245
14.8252
14.7671
14.7117
14.6588
14.6083
14.5602
14.5141
14.4702
14.4281
14.388
14.3496
14.313
14.2779
14.2444
14.2123
14.1816
14.1522
14.1242
14.8252
14.7671
14.7117
14.6588
14.6083
14.5601
14.5141
14.4701
14.4281
14.388
14.3496
14.313
14.2779
14.2444
14.2123
14.1817
14.1523
14.1242
14.8252
14.7672
14.7117
14.6589
14.6083
14.5601
14.514
14.4701
14.428
14.3879
14.3495
14.313
14.278
14.2445
14.2126
14.1821
14.1529
14.1249
14.8252
14.7672
14.7117
14.6589
14.6084
14.5603
14.5144
14.4706
14.4289
14.3889
14.3509
14.3143
14.2798
14.2462
14.2147
14.1838
14.1552
14.1268
14.8257
14.7668
14.7125
14.6588
14.6104
14.5634
14.5216
14.4803
14.444
14.4071
14.3754
14.3424
14.3148
14.2853
14.2616
14.2355
14.2155
14.1926
14.8297
14.7634
14.7244
14.6837
14.6708
14.6549
14.6569
14.6597
14.6788
14.6934
14.7347
14.7622
14.8262
14.866
14.9512
15.004
15.1063
15.1749
14.8584
14.8852
15.1326
15.3459
15.8872
16.223
16.982
17.4429
18.4465
19.0472
20.3189
21.0728
22.5978
23.5291
25.2544
26.4026
28.2877
29.6347
16.3242
17.1637
22.6847
27.6927
37.1398
43.8541
56.9593
66.1407
83.8443
96.3717
119.316
135.871
164.357
185.169
219.123
244.043
283.253
312.25
69.8
69.0921
334.027
459.705
636.288
836.136
1089.47
1373.72
1710.46
2080.87
2498.24
2946.96
3433.49
3945.09
4483.26
5038.03
5607.69
6184.95
6.46799
4.89002
5.74649
5.69755
6.00104
5.71375
5.58499
5.82431
6.44643
33.7618
41.858
51.175
62.2698
76.8968
96.9211
123.722
158.502
202.038
254.752
316.819
387.888
467.918
556.838
654.645
761.429
877.396
1002.85
1138.18
1283.86
1440.39
1608.33
1788.24
1980.69
2186.21
2405.3
2638.4
2885.88
3148.04
3425.05
3716.99
4023.83
4345.4
4681.38
5031.34
5394.66
5770.6
6158.25
6556.56
6964.3
7380.07
7802.27
8229.09
8658.41
9087.75
9514.19
9934.57
10346.8
10754.9
11154
11542.6
11919.1
12281.4
12627.5
12955.5
13263.4
13549.6
13812.3
14050.3
14262.1
14446.7
14603.3
14731.6
14831.5
14903.1
14940.8
14942.2
14919.3
14878.8
14801.9
14695.7
14562.5
14403.6
14220.5
14014.8
13788.3
13543
13281
13004.4
12715.4
12416.5
12109.8
11797.6
11482.6
11169.3
10919
10780.7
10657
10506.7
10384
9769.1
9.10526
7.6319
7.7108
8.39008
9.72839
12.2015
15.0838
19.272
25.8266
37.5394
49.28
63.1977
80.1241
100.59
124.81
152.765
184.29
219.12
257.107
297.543
340.773
387.294
436.967
490.097
546.915
607.675
672.617
741.977
815.98
894.844
978.772
1067.95
1162.54
1262.7
1368.54
1480.16
1597.62
1720.94
1850.12
1985.09
2125.77
2271.99
2423.58
2580.28
2741.8
2907.78
3077.8
3251.41
3428.07
3607.16
3788.02
3969.86
4151.83
4332.98
4512.41
4689.58
4865.1
5042.72
5216.24
5385.41
5549.43
5707.43
5858.65
6002.29
6137.6
6263.88
6380.47
6486.79
6582.29
6666.58
6739.31
6800.28
6849.28
6885.91
6908.48
6917.05
6915.88
6905.04
6879.62
6841.97
6792.83
6732.6
6661.91
6581.36
6491.63
6393.5
6287.79
6175.39
6057.19
5934.14
5807.17
5677.27
5545.5
5413.8
5295.33
5202.32
5113.68
5025.18
4942.57
4781.62
11.0549
10.4396
11.3539
13.2328
16.1936
20.0819
25.3141
32.468
42.0721
54.5385
69.1549
86.1869
105.617
127.261
150.955
176.641
204.375
234.274
266.483
301.673
339.868
380.209
423.757
470.566
520.77
574.49
631.841
692.934
757.894
826.853
899.958
977.306
1059
1145.13
1235.79
1331.02
1430.88
1535.38
1644.49
1758.19
1876.39
1998.99
2125.83
2256.74
2391.47
2529.76
2671.28
2815.68
2962.53
3111.36
3261.67
3412.9
3564.48
3715.85
3866.55
4016.38
4165.57
4314.1
4459.31
4600.84
4737.95
4869.94
4996.13
5115.87
5228.51
5333.46
5430.16
5518.13
5596.91
5666.16
5725.6
5775.01
5814.2
5842.89
5859.46
5865.14
5862.65
5850.47
5826.93
5793.19
5749.76
5697.07
5635.62
5565.95
5488.65
5404.38
5313.83
5217.76
5116.91
5012.08
4904.05
4793.66
4681.79
4569.89
4463.63
4368.77
4277.43
4190.2
4108.08
4004.3
12.7416
13.8177
15.9163
18.8598
22.7512
28.0261
35.0455
44.1906
55.6909
69.5509
85.477
103.276
122.731
143.721
166.295
190.648
217.044
245.737
276.945
310.854
347.485
387.429
430.497
476.759
526.313
579.277
635.759
695.812
759.548
827.063
898.39
973.782
1053.37
1137.25
1225.53
1318.28
1415.58
1517.46
1623.94
1735.02
1850.65
1970.75
2095.21
2223.87
2356.53
2492.94
2632.79
2775.75
2921.41
3069.32
3219.01
3369.96
3521.63
3673.52
3825.15
3976.16
4126.29
4274.67
4419.86
4561.27
4698.14
4829.75
4955.38
5074.37
5186.05
5289.8
5385.07
5471.34
5548.17
5615.2
5672.15
5718.8
5754.98
5780.26
5793.03
5796.24
5789.94
5773.44
5746.05
5708.46
5661.18
5604.66
5539.44
5466.1
5385.26
5297.6
5203.83
5104.71
5001.03
4893.57
4783.13
4670.56
4556.72
4442.93
4332.49
4229.01
4129.06
4034.74
3946.6
3851.02
14.7107
17.7681
21.2039
25.0243
29.7678
36.0454
44.2495
54.5774
67.017
81.3845
97.4034
114.876
133.722
154.01
175.952
199.831
225.93
254.492
285.706
319.728
356.686
396.784
440.023
486.478
536.235
589.376
646
706.273
770.338
838.352
910.521
986.95
1067.78
1153.15
1243.2
1338.05
1437.82
1542.6
1652.43
1767.37
1887.41
2012.51
2142.58
2277.49
2417.06
2561.02
2709.09
2860.9
3016.03
3174.02
3334.33
3496.41
3659.67
3823.5
3987.31
4150.43
4312.06
4471.38
4627.32
4779.1
4925.89
5066.86
5201.22
5328.22
5447.1
5557.2
5657.9
5748.63
5828.91
5898.36
5956.67
6003.63
6039.15
6062.17
6072.13
6072.37
6061.25
6038.99
6005.31
5960.75
5905.8
5841.04
5767.05
5684.51
5594.11
5496.6
5392.78
5283.48
5169.55
5051.84
4931.24
4808.64
4684.94
4561.43
4440.39
4324.45
4212.37
4106.92
4009.07
3907.78
11.0352
22.1007
27.0182
31.4146
36.709
43.6137
52.4397
63.2364
75.8619
90.0819
105.683
122.58
140.832
160.627
182.225
205.907
231.923
260.486
291.768
325.918
363.072
403.368
446.885
493.728
544.009
597.856
655.414
716.857
782.367
852.141
926.386
1005.28
1089.02
1177.8
1271.81
1371.24
1476.24
1586.96
1703.52
1825.99
1954.43
2088.81
2229.08
2375.12
2526.72
2683.64
2845.53
3012
3182.57
3356.7
3533.79
3713.18
3894.17
4076.02
4257.92
4439.03
4618.39
4795.01
4967.84
5135.94
5298.35
5454.13
5602.36
5742.14
5872.67
5993.15
6102.88
6201.25
6287.72
6361.84
6423.3
6471.9
6507.55
6528.65
6536.32
6532.45
6515.71
6486.49
6444.8
6391.14
6326.1
6250.32
6164.51
6069.44
5965.92
5854.8
5736.99
5613.42
5485.03
5352.8
5217.68
5080.67
4942.75
4805.19
4669.81
4538.82
4412.11
4292.87
4182.48
4069.53
13.6983
28.1304
33.1328
37.585
43.107
50.2813
59.2808
70.0548
82.4229
96.1844
111.217
127.533
145.273
164.662
185.956
209.409
235.248
263.67
294.847
328.935
366.087
406.457
450.178
497.395
548.257
602.942
661.634
724.538
791.891
863.945
940.952
1023.17
1110.84
1204.25
1303.64
1409.26
1521.34
1640.1
1765.71
1898.3
2037.95
2184.7
2338.49
2499.2
2666.64
2840.5
3020.41
3205.9
3396.42
3591.32
3789.88
3991.32
4194.77
4399.31
4603.96
4807.67
5009.3
5207.71
5401.74
5590.29
5772.23
5946.47
6111.94
6267.63
6412.59
6545.93
6666.85
6774.66
6868.76
6948.66
7014.03
7064.67
7100.45
7119.54
7124.48
7115.39
7091.88
7054.33
7002.93
6938.26
6860.98
6771.87
6671.76
6561.53
6442.13
6314.53
6179.77
6038.89
5892.99
5743.13
5590.39
5435.87
5280.64
5126
4973.55
4825.34
4681.91
4546.74
4421.42
4293.45
76.3685
41.2946
40.0092
43.2536
48.6045
55.755
64.6275
75.0967
86.9942
100.182
114.615
130.366
147.609
166.564
187.454
210.529
236.008
264.089
294.964
328.83
365.835
406.142
449.931
497.405
548.838
604.416
664.372
728.928
798.401
873.128
953.438
1039.66
1132.12
1231.18
1337.16
1450.39
1571.18
1699.81
1836.53
1981.52
2134.91
2296.75
2467.02
2645.57
2832.18
3026.51
3228.1
3436.4
3650.74
3870.34
4094.34
4321.78
4551.61
4782.71
5013.89
5243.87
5471.35
5694.99
5913.46
6125.48
6329.75
6525
6710
6883.6
7044.72
7192.34
7325.6
7443.69
7545.97
7631.92
7701.18
7753.59
7788.81
7805.44
7806.44
7790.85
7759.12
7711.64
7648.73
7571.09
7479.51
7374.89
7258.19
7130.46
6992.76
6846.23
6692.04
6531.37
6365.45
6195.47
6022.64
5848.15
5673.18
5499.09
5327.4
5160.12
4998.16
4845.23
4702.95
4557.73
96.0715
49.0178
45.3437
47.8236
52.9292
59.8905
68.4673
78.4969
89.8423
102.423
116.25
131.411
148.108
166.58
187.107
209.815
234.908
262.592
293.07
326.54
363.216
403.325
447.106
494.814
546.693
603.05
664.217
730.64
802.545
880.393
964.603
1055.59
1153.78
1259.6
1373.49
1495.85
1627.09
1767.55
1917.56
2077.35
2247.1
2426.86
2616.61
2816.19
3025.3
3243.55
3470.37
3705.07
3946.86
4194.78
4447.79
4704.72
4964.32
5225.24
5486.05
5745.28
6001.37
6252.81
6498.05
6735.62
6964.03
7181.84
7387.66
7580.17
7758.17
7920.55
8066.32
8194.63
8304.78
8396.22
8468.59
8521.75
8555.14
8568.45
8563.64
8539.91
8498.18
8438.91
8362.51
8269.84
8161.83
8039.54
7904.07
7756.63
7598.45
7430.8
7255.01
7072.41
6884.36
6692.18
6497.21
6300.75
6104.08
5908.64
5715.93
5527.99
5345.94
5173.72
5012.74
4848.8
109.912
54.4346
49.2709
51.185
56.0019
62.679
70.8754
80.4125
91.1858
103.146
116.383
131.09
147.371
165.397
185.344
207.407
231.833
258.849
288.688
321.594
357.838
397.708
441.503
489.537
542.144
599.697
662.597
731.19
806.001
887.634
976.601
1073.41
1178.58
1292.65
1416.15
1549.59
1693.44
1848.15
2014.09
2191.54
2380.7
2581.62
2794.24
3018.35
3253.56
3499.35
3755.03
4019.74
4292.49
4572.14
4857.41
5146.91
5439.15
5732.53
6025.39
6315.99
6602.59
6883.41
7156.73
7420.87
7674.14
7914.93
8141.7
8353
8547.49
8723.97
8881.39
9018.84
9135.58
9231.06
9304.9
9356.99
9386.85
9394.93
9382.18
9348.14
9294.28
9221.02
9128.92
9019
8892.38
8750.25
8593.9
8424.68
8243.99
8053.27
7853.98
7647.61
7435.65
7219.56
7000.79
6780.76
6560.84
6342.54
6127.4
5917.52
5714.09
5521.33
5340.25
5156.59
119.883
58.1424
51.924
53.3617
57.8576
64.1972
71.9756
80.9996
91.2324
102.753
115.544
129.677
145.296
162.616
181.831
203.207
226.952
253.313
282.562
314.993
350.931
390.724
434.743
483.388
537.087
596.288
661.523
733.11
811.794
898.319
993.435
1097.71
1211.78
1336.29
1471.86
1619.12
1778.6
1950.81
2136.17
2334.97
2547.39
2773.45
3012.99
3265.69
3531.04
3808.34
4096.69
4395.04
4702.15
5016.64
5336.99
5661.55
5988.57
6316.19
6642.51
6965.55
7283.33
7593.88
7895.26
8185.6
8463.05
8725.85
8972.3
9200.85
9410.08
9598.71
9765.64
9909.93
10030.8
10127.8
10200.6
10248.9
10272.8
10272.8
10249.6
10202.5
10134
10044.2
9933.96
9804.45
9656.95
9492.82
9313.53
9120.59
8915.57
8700.05
8475.65
8244
8006.71
7765.37
7521.54
7276.74
7032.42
6790.18
6551.57
6318.81
6093.05
5878.83
5676.59
5472.63
126.826
60.5138
53.4401
54.4414
58.5911
64.5654
71.9503
80.6168
90.4424
101.382
113.517
126.981
141.97
158.649
177.225
197.945
221.065
246.874
275.691
307.874
343.821
383.96
428.745
478.694
534.365
596.224
664.598
740.555
824.946
918.489
1022.13
1136.59
1262.62
1400.99
1552.42
1717.58
1897.08
2091.44
2301.06
2526.2
2766.93
3023.17
3294.61
3580.72
3880.78
4193.85
4518.78
4854.24
5198.73
5550.59
5908.03
6269.12
6631.87
6994.16
7353.87
7708.8
8056.76
8395.59
8723.19
9037.53
9336.63
9618.61
9881.67
10124.2
10344.7
10541.9
10714.7
10862.1
10983.4
11078.2
11146.1
11187.1
11201.4
11190.3
11152.9
11089.7
11003.5
10894.4
10763.4
10611.8
10441.1
10252.9
10048.7
9830.29
9599.35
9357.61
9106.83
8848.76
8585.14
8317.65
8047.94
7777.62
7508.22
7241.39
6978.72
6722.53
6473.86
6237.64
6013.54
5789.13
130.877
61.6937
53.9434
54.5577
58.4334
64.1432
71.2014
79.3776
88.6345
99.0044
110.592
123.512
137.939
154.063
172.112
192.356
215.105
240.707
269.544
302.056
338.767
380.215
426.918
479.373
538.069
603.989
678.145
761.418
854.749
959.045
1075.32
1204.55
1347.62
1505.37
1678.61
1868.01
2074.12
2297.4
2538.13
2796.41
3072.12
3364.92
3674.23
3999.25
4338.94
4692.02
5057.06
5432.4
5816.24
6206.65
6601.56
6998.84
7396.22
7791.43
8182.13
8565.97
8940.62
9303.78
9653.25
9986.89
10302.7
10598.6
10872.9
11124
11350.2
11550.4
11723.5
11868.6
11985
12072.4
12130.6
12159.7
12160
12133.8
12077.6
11994.9
11887.7
11756.1
11601.5
11425.3
11229.2
11014.8
10784.1
10538.7
10280.6
10011.6
9733.65
9448.5
9158.03
8863.99
8568.12
8272.07
7977.42
7685.89
7399.06
7119.35
6847.64
6589.31
6343.06
6098.49
132.566
61.8769
53.7268
54.0826
57.6462
62.9727
69.5941
77.3367
86.1613
96.0983
107.249
119.756
133.815
149.643
167.508
187.738
210.74
236.967
266.87
300.972
339.72
383.721
433.893
491.129
556.428
630.756
715.295
811.129
919.362
1041.07
1177.26
1329.22
1497.85
1684.09
1888.72
2112.19
2354.84
2616.84
2898.18
3198.6
3517.62
3854.5
4208.25
4577.67
4961.31
5357.56
5764.61
6180.52
6603.24
7030.59
7460.33
7890.14
8317.66
8740.47
9156.17
9562.33
9956.59
10336.6
10700.1
11045.1
11369.4
11671.1
11948.4
12199.7
12423.7
12619.1
12784.9
12920.3
13024.9
13098.3
13140.5
13151.7
13134
13085.8
13006.8
12900.7
12768.7
12611.4
12430.3
12227.1
12003.5
11761.3
11502.6
11229.3
10943.3
10646.5
10341
10028.7
9711.51
9391.17
9069.47
8748.1
8428.67
8112.92
7802.4
7499.64
7205.27
6925.21
6657
6393.05
132.317
61.4582
52.9366
52.9348
56.1583
61.165
67.4638
74.8854
83.4064
93.0827
104.041
116.475
130.683
146.911
165.501
186.85
211.324
239.397
271.874
309.543
353.325
404.23
463.316
531.808
611.047
702.354
807.123
926.672
1062.27
1215.05
1385.94
1575.84
1785.8
2016.83
2269.56
2543.56
2838.56
3154.13
3489.67
3844.31
4216.99
4606.4
5011.07
5429.3
5859.29
6299.08
6746.62
7199.79
7656.4
8114.24
8571
9024.4
9472.11
9911.75
10341
10757.5
11159
11543.3
11908.1
12251.6
12571.6
12866.5
13134.5
13374.1
13584.1
13763.3
13911.1
14026.6
14109.6
14160
14177.7
14164.5
14120.2
14043.1
13935.8
13800.9
13639.5
13452.4
13241.2
13007.8
12754.2
12482.2
12193.9
11891.3
11576.6
11251.6
10918.4
10579
10235.2
9889
9542.03
9195.99
8852.48
8513.23
8179.75
7854.67
7538.28
7237.15
6947.39
6665.11
130.865
60.4187
51.6199
51.4346
54.4797
59.3319
65.5202
72.9155
81.5735
91.5869
103.14
116.457
131.68
149.355
170.023
194.317
223.047
257.166
297.706
345.904
403.225
471.259
551.61
645.989
756.195
883.885
1030.55
1197.48
1385.79
1596.15
1829.04
2084.66
2363.28
2665.19
2989.27
3334.28
3699.01
4082.18
4482.39
4898.13
5327.75
5769.5
6221.54
6681.98
7148.91
7620.34
8094.32
8568.86
9042.01
9511.77
9976.12
10433
10880.4
11316.3
11738.5
12144.9
12533.6
12902.4
13249.5
13572.9
13871
14142.1
14384.7
14597.3
14779.2
14928.9
15046.4
15130.5
15181.7
15199.6
15185.8
15140.2
15061.1
14950.8
14810.6
14643.1
14449.2
14229.9
13987
13722.6
13438.5
13136.7
12819.5
12488.7
12146.5
11794.9
11436
11071.6
10703.7
10334
9964.19
9595.95
9230.8
8870.42
8516.27
8171.04
7834.64
7514.36
7204.6
6906.1
127.922
58.9804
50.2823
50.1503
53.3172
58.426
65.0164
72.974
82.2934
93.2943
106.311
121.773
140.325
162.714
189.886
223.03
263.684
313.627
374.75
449.15
539.318
647.805
776.812
928.298
1104.12
1305.51
1532.97
1786.67
2066.34
2370.87
2699.41
3050.54
3423.66
3816
4224.38
4647.27
5082.88
5529.46
5985.33
6448.8
6918.2
7391.9
7868.29
8345.81
8822.95
9298.21
9770.12
10237.3
10698.2
11151.5
11595.6
12028.9
12449.9
12856.7
13247.7
13621.1
13975.2
14308
14618
14903.4
15162.8
15394.7
15597.5
15770.1
15912.2
16021.6
16099.7
16144.1
16156.4
16137.6
16086.2
16002
15886.9
15741.4
15567.1
15366.4
15140.3
14889.8
14616.7
14323.3
14011.3
13682.8
13339.9
12984.6
12618.9
12244.9
11864.5
11479.6
11091.9
10703.1
10314.8
9928.64
9546
9168.48
8797.45
8435.63
8082.52
7746.19
7419.07
7107.38
124.655
57.5157
49.2038
49.6039
53.4111
59.2028
66.7602
76.0978
87.5959
101.851
119.609
141.814
169.959
205.924
251.85
310.438
385.274
480.273
598.986
744.575
920.752
1130.47
1374.53
1652.52
1963.75
2305.96
2675.65
3070.28
3486.12
3919.1
4368.24
4830.17
5298.85
5771.35
6246.41
6722.77
7199.25
7674.81
8148.53
8619.49
9086.82
9549.72
10007.4
10459.3
10904.6
11342.7
11772.9
12194.6
12607
13009.3
13400.4
13779.3
14144.8
14495.5
14830
15146.7
15444.1
15720.6
15974.6
16204.7
16409.6
16587.8
16737.6
16858.4
16950.5
17009.9
17041
17038.4
17009.1
16945.5
16851.8
16728
16575
16393.3
16184.5
15951
15693.7
15413.7
15112.7
14793
14456.3
14104.7
13740.1
13364.5
12979.8
12588
12190.8
11790.1
11387.4
10984.4
10582.4
10182.9
9787.28
9396.95
9013.16
8638.65
8272.47
7923.46
7581.92
7260.17
120.932
56.1484
48.5919
50.3219
55.4822
63.3999
74.1929
87.9179
105.821
130.004
162.73
206.723
266.728
349.309
460.608
607.388
798.444
1040.57
1335.96
1682.85
2080.46
2524.95
3006.97
3518.1
4050.54
4594.5
5142.53
5694.99
6244.63
6785.1
7311.85
7823.95
8321.91
8805.62
9275.58
9732.45
10176.9
10609.7
11031.3
11442.2
11842.7
12233
12613.5
12984.5
13346.2
13698.8
14042.3
14376.8
14701.9
15017.4
15322.7
15616.9
15899
16168
16422.4
16661
16882
17084.2
17265.7
17425.6
17562.9
17675.5
17761.5
17820.9
17855.1
17856.7
17836.1
17783.8
17703.3
17593.7
17456.5
17291.9
17100.5
16882.7
16640.4
16375.7
16089.3
15782.4
15456.2
15113.1
14755.1
14384.1
14002
13610.7
13211.9
12807.3
12398.6
11987.4
11575.2
11163.1
10752.7
10345.1
9941.46
9543.08
9151.1
8768.13
8392.83
8034.71
7681.95
7353.27
117.829
54.4219
48.5883
54.1299
63.1078
77.302
99.2511
127.871
168.668
232.108
328.572
469.259
673.708
966.82
1357.22
1847
2437.81
3115.83
3854.3
4628.42
5417.87
6204.06
6970.06
7714.25
8427.27
9093.98
9714.16
10286.8
10815.7
11306.4
11761.8
12185.1
12580.2
12950.2
13298.3
13627.1
13939
14236.2
14520.2
14792.4
15053.9
15305.7
15548.7
15783.9
16012.1
16233.8
16449.7
16659.8
16864.1
17062.5
17254.5
17439.3
17615.8
17782.8
17939
18083
18212.7
18327.2
18424.1
18503.1
18563.6
18602.3
18616.9
18608.9
18580.9
18523.4
18443.8
18338.4
18207.7
18051
17868.4
17661.5
17431.3
17177.8
16903
16608.9
16295.8
15965.1
15619.3
15259.1
14886.1
14502.1
14108.9
13708
13301.2
12889.9
12475.7
12060
11643.9
11228.5
10815.2
10404.7
9998.34
9596.95
9201.69
8814.91
8435.09
8072.03
7712.37
7380.07
113.266
51.3502
46.9329
69.0084
89.8082
127.814
203.33
309.543
481.255
791.707
1292.7
1997.76
2931.37
4099.93
5404.05
6771.93
8137.65
9443.01
10647.1
11764.8
12760.2
13625.2
14374
15012
15554.4
16017.2
16407.3
16735.2
17010.5
17242.7
17439
17605.8
17748.9
17872.7
17981.1
18077.1
18163.6
18242.6
18315.6
18383.7
18448.1
18509.7
18569.5
18628.6
18687.6
18747.1
18807.7
18869
18930.8
18993.1
19055.2
19115.8
19173.6
19227.1
19274.7
19314.9
19345.1
19364.9
19370.9
19364.5
19344.8
19305.6
19247.9
19169.7
19072.6
18953
18813.5
18652.9
18471
18269.9
18048.3
17806.4
17544.4
17262.3
16962.2
16645.5
16312.7
15964.9
15603.7
15230.6
14847.2
14455.1
14055.8
13650.7
13241.4
12829
12415
12000.3
11586.1
11173.2
10762.5
10354.7
9950.87
9551.58
9158.01
8772
8392.13
8027.95
7665.3
7332.15
113.083
35.4622
35.6256
147.856
233.994
447.024
956.226
1790.8
3081.85
5098.84
7644.93
10351.4
13039.3
15570.2
17750
19604.1
21072.7
22185.1
23018.2
23619.8
24049.8
24336.9
24506.8
24571.4
24556
24491.5
24365.3
24205.2
24020.9
23820.2
23609.4
23394
23178.3
22965
22756.5
22554.4
22359.8
22173.3
21995
21825
21663.6
21510.9
21367.6
21234
21110.4
20997
20893.4
20798.9
20712.7
20635.1
20564
20498
20435.3
20374
20312.5
20248.8
20179.5
20103.4
20018
19923.6
19819.5
19702.5
19572
19430.3
19274.4
19101.8
18912.7
18706.8
18483.5
18243.1
17985.4
17711.1
17420.4
17113.2
16791.6
16456.7
16108.8
15748.9
15378.6
14999.1
14611.9
14218.2
13819.5
13417
13011.8
12605
12197.8
11790.8
11384.9
10980.6
10578.7
10179.6
9784.2
9392.63
9006.29
8626.12
8251.37
7890.36
7529.67
7198.47
100.683
389.797
1063.59
1014.41
1996.46
4794.34
9375.33
15058.4
20947
26888.8
31817.4
35376.5
37673.1
38973.4
39572.2
39626.8
39466.3
39056.8
38470
37790.5
37051.9
36271.2
35465.8
34644.2
33821
33011.7
32218.1
31447.7
30707.2
29998.6
29323.7
28683.6
28077.9
27505.8
26966
26457
25977.3
25524.7
25097.4
24693.9
24313.2
23954.7
23617.9
23302.4
23007.6
22732.8
22476.4
22237.1
22014.2
21805.1
21608.8
21423.4
21247
21077.4
20912.7
20750.3
20592
20433.9
20272.4
20106.2
19934.2
19754.4
19565.2
19365.8
19155.8
18934
18699.8
18453.1
18193
17920
17633.5
17334.3
17022.5
16697.8
16362.2
16016.5
15661
15296.7
14924.8
14546.5
14163
13775.4
13384.7
12992.1
12598.4
12204.4
11811
11418.6
11027.8
10638.7
10252.2
9868.04
9487.36
9109.42
8736.22
8367.26
8003.3
7649.9
7296.88
6970.21
119.711
2158.79
5572.28
16924.7
26853.7
45318.1
60547.8
70229.1
75210.9
76131.7
75180
72715.4
69633
66491.4
63414.9
60452
57703.3
55141.9
52755.6
50536.4
48467.7
46523.8
44693.7
42966.3
41341.4
39816.2
38389.1
37054.2
35810.8
34651.9
33573.1
32569.1
31634
30761.8
29947.3
29185.2
28471.1
27800.2
27169
26574.3
26014.3
25487.6
24992.8
24528.9
24094.3
23687.6
23308.4
22955.6
22626.1
22317.1
22026.1
21751
21489.4
21239.1
20997.7
20763
20532.6
20305.1
20078.3
19850.7
19620.8
19387.3
19148.6
18903.7
18651.8
18392.3
18124.3
17847.6
17561.3
17266
16960.7
16646.6
16323.2
15990.5
15650.3
15303
14949
14589.3
14224.7
13856.3
13485
13111.8
12737.4
12362.8
11988.4
11615
11242.8
10872.2
10503.7
10136.8
9772.48
9409.81
9050.35
8692.24
8338.5
7986.37
7639.39
7298.18
6959.37
6639.5
346.919
53373.6
85897.5
146983
161697
169500
163499
147958
132756
118974
107308
97516.4
89326.7
82517.8
76741.5
71771.6
67461.2
63647.6
60234.3
57142.1
54314.3
51693.4
49260.7
47000.2
44907.7
42974.3
41193.1
39552.3
38043.6
36651.3
35366.9
34179.6
33078.6
32053.9
31098.3
30203.8
29365.6
28577.2
27834.5
27134
26474
25852.7
25268.6
24720.5
24206.4
23724.6
23272.8
22848.6
22450.2
22075.1
21720.6
21384.2
21063.6
20756.4
20460.4
20173.4
19893.4
19618.7
19347.4
19078.1
18809.4
18540.1
18268.9
17994.8
17717
17434.8
17147.4
16854.7
16555.7
16251
15939.5
15622.5
15299.2
14970
14636.2
14298.2
13956.3
13611.3
13264
12915.2
12565.6
12215.9
11866.7
11518.7
11172
10827
10483.9
10142.7
9803.72
9466.08
9130.95
8796.58
8465.14
8133.29
7805.68
7476.25
7152.97
6828.6
6511.42
6200.26
2345.51
11370.7
19550.4
33952.7
43891
52908.6
59688.3
64172.8
67226.6
68887.1
69294.6
69025.4
67940
66672.1
64714.2
62503.3
60169.9
57742.2
55328.3
52953.7
50629.6
48342.6
46161.9
44119
42230
40496.1
38905.1
37450.1
36108.4
34864.2
33713.2
32639
31630.7
30677.5
29776.8
28922.2
28113.7
27342.8
26607.1
25905.8
25239
24607
24009.1
23445.1
22912.8
22411.4
21938.1
21490.6
21067.2
20665.3
20282.6
19917
19566.2
19228.4
18901.7
18584.5
18275.2
17972.3
17674.4
17380.4
17089
16799.5
16510.6
16221.9
15932.3
15641.6
15348.7
15053.9
14756
14456.2
14152.6
13847.4
13539.3
13229
12917.5
12605
12291.7
11978.3
11665.4
11353.6
11043.4
10735.2
10429.1
10126.1
9824.92
9526.48
9230.16
8936.15
8644.37
8353.36
8064.86
7775.78
7489.47
7200.07
6915.25
6623.04
6339.71
6043.2
5764.75
5466.54
165.83
248.135
650.083
876.077
1666.95
2042.94
3090.33
3643.13
4749.45
5542.1
6634.73
7839.22
9130.21
10485.9
11861.2
13243.9
14599.7
15912.8
17153.3
18297.5
19344.8
20322.5
21201.3
21952.1
22566.1
23037.6
23357.3
23560.1
23603.6
23542.3
23444.8
23232.6
22971.4
22652.6
22303.8
21927.9
21537.4
21116
20682.2
20248
19820.8
19405.9
19003.7
18617.6
18243.6
17885.5
17537.6
17201.2
16876.1
16560
16251.9
15951.3
15657.3
15369.5
15087.3
14810.4
14538
14269.5
14004.2
13741.9
13481.7
13223.6
12966.7
12711.1
12456.1
12201.8
11947.4
11693.7
11439.3
11186.2
10931.8
10679.8
10427.8
10176.8
9927.51
9680.18
9434.16
9190.82
8950.16
8712.9
8478.67
8248.32
8021.03
7797.85
7575.5
7356.7
7139.14
6924.41
6710.95
6497.32
6286.49
6072.92
5862.23
5644.49
5432.37
5203.82
4989.72
4741.85
4534.4
4257.42
40.5103
41.8722
56.7998
61.8479
87.3858
96.5064
130.178
142.329
184.403
200.456
259.75
284.499
379.156
417.962
569.474
631.635
850.335
945.081
1207.31
1348.56
1632.63
1855.97
2165.04
2515.63
2907.47
3329.37
3778.62
4245.98
4724.38
5204.23
5681.16
6144.12
6586.66
7003.06
7385.17
7736.18
8046.32
8337.94
8605.67
8841.57
9044.37
9211.59
9343.21
9442.45
9506.44
9546.61
9551.81
9537.06
9507.01
9453.17
9383.7
9300.82
9206.2
9101.33
8989.04
8870.13
8744.12
8612.35
8475.79
8335.98
8192.51
8046.82
7898.47
7748.97
7597.79
7446.37
7294.06
7142.37
6990.19
6839.74
6689.2
6540.87
6393.9
6248.05
6104.47
5962.64
5823.45
5687.18
5553.38
5423.19
5295.19
5171.63
5049.78
4930.56
4809.27
4692.18
4575.5
4461.93
4348.42
4233.88
4122.25
4005.31
3890.9
3765.59
3644.45
3498.89
3369.89
3191.09
3068.94
2826.96
20.8053
20.9148
21.7519
22.0768
23.4167
24.0754
25.8879
26.8516
29.1842
30.3548
33.4857
34.8718
39.318
40.9747
47.0988
49.248
57.3316
60.2485
70.441
74.2441
87.481
92.7891
111.368
119.486
148.637
161.423
205.694
225.366
286.661
315.164
390.838
431.148
517.228
573.848
662.658
741.837
840.176
946.137
1060.17
1179.2
1303.04
1428.48
1554.46
1678.42
1798.41
1913.22
2020.25
2119.48
2208.8
2288.9
2357.42
2416.77
2464.31
2501.89
2538.18
2552.93
2564.84
2566.37
2562.5
2552.25
2537.22
2517.61
2494.64
2468.59
2440.4
2410.15
2378.67
2345.91
2312.62
2278.8
2245.3
2211.76
2179.95
2147.82
2118.3
2088.84
2062.23
2036.98
2013.51
1991.89
1971.19
1953.11
1934.06
1920.55
1908.99
1902.33
1896.15
1892.09
1886.09
1878.31
1871.03
1855
1840.4
1809.89
1777.31
1723.78
1676.5
1590.8
1537.79
1362.28
15.7751
15.8026
15.8732
15.9063
16.0078
16.0666
16.2038
16.3011
16.4768
16.6207
16.851
17.028
17.337
17.5374
17.9274
18.1962
18.7018
19.0331
19.6928
20.0474
20.8593
21.3049
22.3739
22.92
24.4346
25.135
27.2912
28.196
31.1243
32.2497
35.9162
37.3236
41.8112
43.5823
49.0815
51.3261
58.3663
61.3384
70.6247
74.551
86.5269
91.5767
106.42
112.636
130.105
137.341
156.729
164.65
184.896
193.013
212.87
220.698
239.147
246.309
262.65
268.97
282.35
289.423
295.428
301.436
306.013
310.523
313.807
317.017
319.179
321.313
322.564
323.878
324.478
325.285
325.55
326.337
326.854
328.174
329.43
331.812
334.225
337.946
341.733
346.663
351.868
357.881
364.876
369.954
384.548
391.385
405.354
415.388
429.799
443.502
456.898
467.071
478.289
479.497
481.707
476.657
470.191
449.429
439.346
373.893
14.4424
14.4306
14.4182
14.4058
14.3933
14.3824
14.3714
14.3638
14.356
14.3527
14.3511
14.3533
14.3601
14.3674
14.3815
14.3907
14.4268
14.4433
14.4937
14.5146
14.5752
14.6066
14.6837
14.7304
14.8353
14.8972
15.0427
15.1172
15.3111
15.3968
15.6273
15.7477
16.0357
16.1887
16.5722
16.7227
17.1858
17.3437
17.904
18.0996
18.78
19.0303
19.8347
20.1398
21.055
21.4051
22.4062
22.7902
23.8365
24.2337
25.2723
25.7228
26.5176
27.0575
27.63
28.1891
28.7316
29.2937
29.7476
30.2058
30.5484
30.9049
31.1681
31.4499
31.6522
31.8779
32.0344
32.2217
32.3491
32.5192
32.638
32.8225
32.9688
33.2157
33.4367
33.8042
34.1562
34.68
35.2067
35.8906
36.6034
37.4903
38.4941
39.7134
41.2253
42.7569
45.0196
46.7544
50.5287
52.5289
56.2706
58.6043
62.0734
64.3675
66.4068
66.9078
68.0378
65.9809
66.4381
55.6473
14.149
14.1211
14.0927
14.0641
14.0351
14.0059
13.9763
13.9466
13.9167
13.8866
13.8565
13.8265
13.7964
13.7667
13.7369
13.7072
13.6782
13.6492
13.6212
13.5931
13.566
13.539
13.5133
13.4877
13.4634
13.4394
13.417
13.395
13.3748
13.3553
13.3375
13.3219
13.3072
13.2961
13.2843
13.2771
13.2688
13.2633
13.2619
13.262
13.2691
13.2731
13.2848
13.2931
13.309
13.3209
13.3399
13.3541
13.3741
13.3884
13.4067
13.4199
13.4322
13.4404
13.4442
13.4465
13.4439
13.4392
13.4287
13.4151
13.396
13.3749
13.3498
13.3238
13.295
13.2663
13.2352
13.2052
13.1732
13.1433
13.1119
13.084
13.0554
13.0321
13.0087
12.9939
12.9781
12.9787
12.9839
12.9955
13.0121
13.0391
13.0729
13.1234
13.1852
13.2639
13.3624
13.4776
13.6315
13.7882
13.9999
14.1727
14.5281
14.703
14.9792
15.0909
15.2309
15.2119
15.2884
14.7941
14.1015
14.0693
14.0368
14.004
13.9707
13.9372
13.9033
13.8692
13.8346
13.7998
13.7645
13.729
13.6931
13.6571
13.6206
13.5839
13.5468
13.5096
13.4721
13.4344
13.3963
13.3582
13.3196
13.2811
13.2421
13.2031
13.1636
13.1243
13.0843
13.0447
13.0043
12.9644
12.9238
12.8837
12.8428
12.8025
12.7615
12.7209
12.6798
12.6392
12.5983
12.5578
12.5169
12.4765
12.4357
12.3956
12.3548
12.315
12.2743
12.2346
12.194
12.1546
12.1141
12.0749
12.0346
11.9954
11.9554
11.9165
11.877
11.8386
11.7998
11.7623
11.7246
11.6885
11.6525
11.6183
11.5843
11.5526
11.5207
11.4915
11.4618
11.4353
11.4079
11.384
11.3588
11.3376
11.3155
11.2972
11.2777
11.2617
11.2444
11.2303
11.2157
11.2038
11.1937
11.1854
11.1839
11.1876
11.1961
11.2052
11.2388
11.2606
11.3139
11.3607
11.4253
11.5011
11.5985
11.6856
11.891
12.155
14.0959
14.063
14.0297
13.9961
13.962
13.9277
13.893
13.8579
13.8225
13.7868
13.7506
13.7142
13.6773
13.6402
13.6026
13.5648
13.5265
13.4881
13.4491
13.41
13.3703
13.3305
13.2901
13.2497
13.2086
13.1675
13.1256
13.0839
13.0413
12.9989
12.9556
12.9125
12.8684
12.8247
12.78
12.7356
12.6902
12.6452
12.5992
12.5537
12.5072
12.4613
12.4143
12.3681
12.3208
12.2745
12.227
12.1808
12.1334
12.0875
12.0404
11.995
11.9485
11.9039
11.8584