/*--------------------------------*- C++ -*----------------------------------*\
| =========                 |                                                 |
| \\      /  F ield         | OpenFOAM: The Open Source CFD Toolbox           |
|  \\    /   O peration     | Version:  5.x                                   |
|   \\  /    A nd           | Web:      www.OpenFOAM.org                      |
|    \\/     M anipulation  |                                                 |
\*---------------------------------------------------------------------------*/
FoamFile
{
    version     2.0;
    format      ascii;
    class       surfaceScalarField;
    location    "231";
    object      phi;
}
// * * * * * * * * * * * * * * * * * * * * * * * * * * * * * * * * * * * * * //

dimensions      [0 3 -1 0 0 0 0];

internalField   nonuniform List<scalar> 
11337
(
1.30984e-05
3.15076e-08
1.30357e-05
6.26829e-08
1.29672e-05
6.85246e-08
1.28987e-05
6.84568e-08
1.28294e-05
6.93013e-08
1.27627e-05
6.66989e-08
1.2701e-05
6.16959e-08
1.26448e-05
5.6223e-08
1.25937e-05
5.10589e-08
1.25475e-05
4.62442e-08
1.25057e-05
4.18177e-08
1.24679e-05
3.77714e-08
1.24339e-05
3.4023e-08
1.24032e-05
3.06803e-08
1.23757e-05
2.746e-08
1.23506e-05
2.51146e-08
1.23273e-05
2.332e-08
2.16088e-08
1.23057e-05
1.45403e-05
-1.22668e-08
1.4557e-05
4.59791e-08
1.45717e-05
5.38118e-08
1.45827e-05
5.75252e-08
1.4591e-05
6.09475e-08
1.45968e-05
6.08805e-08
1.46e-05
5.85458e-08
1.46005e-05
5.57418e-08
1.45986e-05
5.28847e-08
1.45949e-05
5.00426e-08
1.45895e-05
4.71489e-08
1.4583e-05
4.43257e-08
1.45755e-05
4.14872e-08
1.45674e-05
3.88042e-08
1.45589e-05
3.59774e-08
1.45504e-05
3.36086e-08
1.45436e-05
3.01053e-08
2.7628e-08
1.45376e-05
1.60001e-05
-6.90214e-09
1.60071e-05
3.90454e-08
1.60156e-05
4.52761e-08
1.6026e-05
4.70909e-08
1.6037e-05
4.99544e-08
1.6047e-05
5.08717e-08
1.60556e-05
4.99866e-08
1.60628e-05
4.8492e-08
1.60689e-05
4.67783e-08
1.60741e-05
4.48829e-08
1.60784e-05
4.28111e-08
1.60821e-05
4.06492e-08
1.60852e-05
3.83947e-08
1.60879e-05
3.61159e-08
1.60902e-05
3.3665e-08
1.60926e-05
3.1169e-08
1.60949e-05
2.78627e-08
2.45863e-08
1.60979e-05
1.76632e-05
1.36955e-09
1.76726e-05
2.96264e-08
1.76795e-05
3.84354e-08
1.76857e-05
4.09236e-08
1.76919e-05
4.36653e-08
1.76977e-05
4.50666e-08
1.7703e-05
4.47033e-08
1.77081e-05
4.3465e-08
1.77129e-05
4.18943e-08
1.77177e-05
4.0128e-08
1.77223e-05
3.8202e-08
1.77268e-05
3.61717e-08
1.77311e-05
3.40484e-08
1.77354e-05
3.18455e-08
1.77396e-05
2.94704e-08
1.77438e-05
2.69145e-08
1.77478e-05
2.38749e-08
2.05484e-08
1.77519e-05
1.95078e-05
4.48238e-09
1.95149e-05
2.25375e-08
1.95198e-05
3.34827e-08
1.95236e-05
3.71215e-08
1.9528e-05
3.92994e-08
1.95327e-05
4.04184e-08
1.95373e-05
4.00904e-08
1.95419e-05
3.88839e-08
1.95464e-05
3.73411e-08
1.95509e-05
3.56297e-08
1.95553e-05
3.37775e-08
1.95597e-05
3.18082e-08
1.9564e-05
2.97367e-08
1.95683e-05
2.75594e-08
1.95725e-05
2.52261e-08
1.95767e-05
2.27091e-08
1.95807e-05
1.98711e-08
1.67582e-08
1.95845e-05
2.15413e-05
5.03495e-09
2.15455e-05
1.83194e-08
2.15502e-05
2.87333e-08
2.15545e-05
3.28051e-08
2.15593e-05
3.45434e-08
2.15643e-05
3.54407e-08
2.15691e-05
3.52926e-08
2.15736e-05
3.43215e-08
2.1578e-05
3.29416e-08
2.15823e-05
3.13435e-08
2.15865e-05
2.95739e-08
2.15907e-05
2.76608e-08
2.15948e-05
2.56292e-08
2.15988e-05
2.34863e-08
2.16028e-05
2.12138e-08
2.16068e-05
1.87996e-08
2.16104e-05
1.62017e-08
1.35055e-08
2.16137e-05
2.37843e-05
4.8176e-09
2.37873e-05
1.527e-08
2.37922e-05
2.38698e-08
2.3797e-05
2.79712e-08
2.38019e-05
2.96756e-08
2.38068e-05
3.0498e-08
2.38117e-05
3.04778e-08
2.38163e-05
2.96825e-08
2.38208e-05
2.84145e-08
2.38253e-05
2.68855e-08
2.38297e-05
2.5176e-08
2.3834e-05
2.33244e-08
2.38383e-05
2.13603e-08
2.38425e-05
1.9301e-08
2.38465e-05
1.71492e-08
2.38504e-05
1.49115e-08
2.3854e-05
1.25865e-08
1.02483e-08
2.38573e-05
2.62603e-05
4.24532e-09
2.62631e-05
1.25225e-08
2.62676e-05
1.93006e-08
2.62725e-05
2.31315e-08
2.62773e-05
2.48302e-08
2.62823e-05
2.55114e-08
2.62873e-05
2.54455e-08
2.62923e-05
2.47137e-08
2.62972e-05
2.35286e-08
2.6302e-05
2.20802e-08
2.63067e-05
2.04609e-08
2.63113e-05
1.87131e-08
2.63158e-05
1.68672e-08
2.63202e-05
1.49478e-08
2.63243e-05
1.29723e-08
2.63283e-05
1.09618e-08
2.63319e-05
8.93489e-09
6.96773e-09
2.63352e-05
2.71118e-05
3.5256e-09
2.71142e-05
1.00772e-08
2.71182e-05
1.53802e-08
2.71226e-05
1.86739e-08
2.71272e-05
2.01975e-08
2.71321e-05
2.06953e-08
2.7137e-05
2.05318e-08
2.71419e-05
1.98245e-08
2.71467e-05
1.87159e-08
2.71514e-05
1.73535e-08
2.7156e-05
1.58279e-08
2.71606e-05
1.41875e-08
2.7165e-05
1.2467e-08
2.71692e-05
1.06967e-08
2.71733e-05
8.90303e-09
2.71771e-05
7.11458e-09
2.71807e-05
5.35522e-09
3.70513e-09
2.7184e-05
3.83419e-05
2.50941e-09
3.83448e-05
7.11816e-09
3.83494e-05
1.07738e-08
3.8355e-05
1.31298e-08
3.83609e-05
1.42127e-08
3.83672e-05
1.44316e-08
3.83736e-05
1.41053e-08
3.83801e-05
1.33647e-08
3.83865e-05
1.23036e-08
3.83928e-05
1.10259e-08
3.8399e-05
9.61445e-09
3.84051e-05
8.122e-09
3.8411e-05
6.5854e-09
3.84167e-05
5.0352e-09
3.84221e-05
3.49677e-09
3.84272e-05
1.9935e-09
3.8432e-05
5.37592e-10
-8.23e-10
3.84365e-05
5.42234e-05
1.2495e-09
5.42269e-05
3.62968e-09
5.42322e-05
5.41599e-09
5.42389e-05
6.46326e-09
5.42463e-05
6.77218e-09
5.42543e-05
6.51552e-09
5.42625e-05
5.87302e-09
5.42709e-05
4.94995e-09
5.42794e-05
3.82038e-09
5.42879e-05
2.55969e-09
5.42962e-05
1.23452e-09
5.43045e-05
-1.07045e-10
5.43125e-05
-1.43073e-09
5.43202e-05
-2.70844e-09
5.43276e-05
-3.91555e-09
5.43346e-05
-5.02718e-09
5.43412e-05
-6.0308e-09
-6.87671e-09
5.43473e-05
7.66831e-05
-2.04851e-10
7.66872e-05
-3.97432e-10
7.66934e-05
-7.81874e-10
7.67013e-05
-1.43193e-09
7.67103e-05
-2.29065e-09
7.67201e-05
-3.25421e-09
7.67302e-05
-4.25954e-09
7.67405e-05
-5.29523e-09
7.67506e-05
-6.36903e-09
7.67607e-05
-7.48063e-09
7.67705e-05
-8.61691e-09
7.67802e-05
-9.7589e-09
7.67896e-05
-1.08874e-08
7.67989e-05
-1.19846e-08
7.6808e-05
-1.30348e-08
7.6817e-05
-1.40215e-08
7.68259e-05
-1.49396e-08
-1.57249e-08
7.68348e-05
0.000108446
-1.85215e-09
0.000108451
-5.03638e-09
0.000108458
-8.02674e-09
0.000108467
-1.0992e-08
0.000108479
-1.39692e-08
0.000108493
-1.68999e-08
0.000108508
-1.96022e-08
0.000108525
-2.18888e-08
0.000108542
-2.36911e-08
0.00010856
-2.50508e-08
0.000108577
-2.60463e-08
0.000108594
-2.67466e-08
0.00010861
-2.72019e-08
0.000108626
-2.74491e-08
0.00010864
-2.75169e-08
0.000108654
-2.74266e-08
0.000108666
-2.72098e-08
-2.68615e-08
0.000108677
7.84465e-05
-2.63844e-09
7.84492e-05
-7.72996e-09
7.84543e-05
-1.31458e-08
7.84606e-05
-1.7335e-08
7.84667e-05
-2.00592e-08
7.8472e-05
-2.21832e-08
7.84766e-05
-2.42697e-08
7.84811e-05
-2.63889e-08
7.84859e-05
-2.84413e-08
7.84912e-05
-3.03358e-08
7.84972e-05
-3.20214e-08
7.85039e-05
-3.34801e-08
7.85114e-05
-3.47193e-08
7.85197e-05
-3.57622e-08
7.85288e-05
-3.66405e-08
7.85388e-05
-3.7389e-08
7.85496e-05
-3.80423e-08
-3.8604e-08
7.85614e-05
6.22627e-05
-3.00545e-09
6.22627e-05
-7.70493e-09
6.22656e-05
-1.60404e-08
6.2272e-05
-2.36936e-08
6.22815e-05
-2.95904e-08
6.22931e-05
-3.38e-08
6.23054e-05
-3.65551e-08
6.23173e-05
-3.83159e-08
6.23284e-05
-3.95457e-08
6.23386e-05
-4.05128e-08
6.23479e-05
-4.1316e-08
6.23564e-05
-4.19743e-08
6.23642e-05
-4.24865e-08
6.23712e-05
-4.28413e-08
6.23776e-05
-4.30191e-08
6.23832e-05
-4.29878e-08
6.23879e-05
-4.27071e-08
-4.2154e-08
6.23914e-05
4.94169e-05
-2.24819e-09
4.94205e-05
-1.1332e-08
4.94223e-05
-1.77942e-08
4.94205e-05
-2.18578e-08
4.94182e-05
-2.73135e-08
4.94176e-05
-3.31969e-08
4.94191e-05
-3.81099e-08
4.94226e-05
-4.17979e-08
4.94276e-05
-4.45074e-08
4.94336e-05
-4.65059e-08
4.94402e-05
-4.7979e-08
4.94473e-05
-4.90517e-08
4.94546e-05
-4.98238e-08
4.94622e-05
-5.03601e-08
4.94699e-05
-5.07256e-08
4.94778e-05
-5.09722e-08
4.94863e-05
-5.12033e-08
-5.14447e-08
4.94956e-05
3.92062e-05
1.44044e-08
3.92159e-05
-2.10765e-08
3.9229e-05
-3.08975e-08
3.92412e-05
-3.39936e-08
3.92507e-05
-3.68579e-08
3.92571e-05
-3.96331e-08
3.92611e-05
-4.21166e-08
3.92638e-05
-4.44896e-08
3.9266e-05
-4.66758e-08
3.92681e-05
-4.86401e-08
3.92704e-05
-5.02594e-08
3.92729e-05
-5.15787e-08
3.92757e-05
-5.25981e-08
3.92787e-05
-5.33738e-08
3.92819e-05
-5.3907e-08
3.92851e-05
-5.4161e-08
3.9288e-05
-5.41045e-08
-5.34617e-08
3.929e-05
3.11048e-05
4.078e-08
3.10936e-05
-9.86711e-09
3.10866e-05
-2.38709e-08
3.10906e-05
-3.806e-08
3.11011e-05
-4.73233e-08
3.1114e-05
-5.25457e-08
3.11274e-05
-5.54775e-08
3.11402e-05
-5.73379e-08
3.11524e-05
-5.88576e-08
3.1164e-05
-6.01892e-08
3.1175e-05
-6.13021e-08
3.11856e-05
-6.21975e-08
3.11959e-05
-6.2879e-08
3.12059e-05
-6.33975e-08
3.12158e-05
-6.37772e-08
3.12257e-05
-6.40519e-08
3.12358e-05
-6.42491e-08
-6.39863e-08
3.12463e-05
2.4751e-05
-1.37131e-09
2.47613e-05
-2.02073e-08
2.47692e-05
-3.17765e-08
2.47829e-05
-5.16927e-08
2.48015e-05
-6.60014e-08
2.48252e-05
-7.62218e-08
2.48525e-05
-8.27572e-08
2.48816e-05
-8.64545e-08
2.49115e-05
-8.87121e-08
2.49413e-05
-9.00073e-08
2.49707e-05
-9.06912e-08
2.49993e-05
-9.08228e-08
2.5027e-05
-9.05766e-08
2.50536e-05
-9.00447e-08
2.50793e-05
-8.94101e-08
2.51043e-05
-8.9071e-08
2.51293e-05
-8.93072e-08
-9.22243e-08
2.51576e-05
1.961e-05
1.95898e-05
1.95581e-05
1.95064e-05
1.94404e-05
1.93641e-05
1.92814e-05
1.91949e-05
1.91062e-05
1.90162e-05
1.89255e-05
1.88347e-05
1.87441e-05
1.86541e-05
1.85647e-05
1.84756e-05
1.83863e-05
1.82941e-05
9.14838e-08
-9.15212e-08
1.89813e-07
-9.83633e-08
2.68286e-07
-7.85033e-08
3.25048e-07
-5.67957e-08
3.55684e-07
-3.06689e-08
3.65366e-07
-9.71197e-09
3.5369e-07
1.16442e-08
3.22306e-07
3.13524e-08
2.7486e-07
4.74124e-08
2.11188e-07
6.36392e-08
1.31593e-07
7.95597e-08
3.67991e-08
9.47576e-08
-7.50852e-08
1.11849e-07
-2.10279e-07
1.35162e-07
-3.72651e-07
1.62345e-07
-5.63333e-07
1.90658e-07
-7.81151e-07
2.17796e-07
-1.02274e-06
2.41569e-07
-1.28329e-06
2.60532e-07
-1.55741e-06
2.74103e-07
-1.83985e-06
2.82426e-07
-2.12608e-06
2.86224e-07
-2.41252e-06
2.86424e-07
-2.69657e-06
2.84037e-07
-2.97657e-06
2.79989e-07
-3.25162e-06
2.75038e-07
-3.52138e-06
2.69747e-07
-3.78589e-06
2.64491e-07
-4.04538e-06
2.59484e-07
-4.30022e-06
2.54818e-07
-4.55072e-06
2.50494e-07
-4.7972e-06
2.46456e-07
-5.03982e-06
2.42609e-07
-5.27867e-06
2.38839e-07
-5.51371e-06
2.35024e-07
-5.74476e-06
2.31041e-07
-5.97154e-06
2.26774e-07
-6.19367e-06
2.22117e-07
-6.41065e-06
2.16976e-07
-6.62193e-06
2.1127e-07
-6.82688e-06
2.04936e-07
-7.0248e-06
1.9792e-07
-7.215e-06
1.90187e-07
-7.39671e-06
1.81711e-07
-7.5692e-06
1.72482e-07
-7.7317e-06
1.62497e-07
-7.88347e-06
1.51762e-07
-8.02376e-06
1.40291e-07
-8.15186e-06
1.28101e-07
-8.26708e-06
1.15206e-07
-8.3687e-06
1.01614e-07
-8.45602e-06
8.73161e-08
-8.5283e-06
7.22709e-08
-8.58468e-06
5.63629e-08
-8.62404e-06
3.93396e-08
-8.64497e-06
2.09034e-08
-8.64651e-06
1.51885e-09
-8.63037e-06
-1.61755e-08
-8.59858e-06
-3.18221e-08
-8.5513e-06
-4.73217e-08
-8.48851e-06
-6.28404e-08
-8.41016e-06
-7.83938e-08
-8.31627e-06
-9.39245e-08
-8.20694e-06
-1.09375e-07
-8.08228e-06
-1.24683e-07
-7.94251e-06
-1.39793e-07
-7.78786e-06
-1.54641e-07
-7.61867e-06
-1.69175e-07
-7.43529e-06
-1.83329e-07
-7.23816e-06
-1.97051e-07
-7.02777e-06
-2.10282e-07
-6.80468e-06
-2.22974e-07
-6.56949e-06
-2.35061e-07
-6.32283e-06
-2.46545e-07
-6.06526e-06
-2.57471e-07
-5.79751e-06
-2.6766e-07
-5.52028e-06
-2.77155e-07
-5.23409e-06
-2.86116e-07
-4.93973e-06
-2.94307e-07
-4.63807e-06
-3.01606e-07
-4.32997e-06
-3.08055e-07
-4.01626e-06
-3.13669e-07
-3.69776e-06
-3.1846e-07
-3.37529e-06
-3.22444e-07
-3.04961e-06
-3.2565e-07
-2.72147e-06
-3.28117e-07
-2.39154e-06
-3.29906e-07
-2.06044e-06
-3.31094e-07
-1.72865e-06
-3.31777e-07
-1.39659e-06
-3.32053e-07
-1.06454e-06
-3.32044e-07
-7.32785e-07
-3.31759e-07
-4.01272e-07
-3.31511e-07
-7.05491e-08
-3.30724e-07
2.6004e-07
-3.30587e-07
5.87137e-07
-3.27097e-07
9.15947e-07
-3.28805e-07
1.22473e-06
-3.08789e-07
1.53315e-06
-3.08424e-07
-9.2906e-08
1.62604e-06
1.01689e-07
-1.93244e-07
1.69014e-07
-1.65715e-07
2.01647e-07
-1.1116e-07
2.06248e-07
-6.1419e-08
1.90341e-07
-1.47828e-08
1.53767e-07
2.68434e-08
1.00173e-07
6.52195e-08
3.04162e-08
1.01092e-07
-5.76597e-08
1.35471e-07
-1.65806e-07
1.7177e-07
-2.98325e-07
2.12064e-07
-4.59881e-07
2.56301e-07
-6.51799e-07
3.03754e-07
-8.702e-07
3.53552e-07
-1.11132e-06
4.0345e-07
-1.37057e-06
4.49899e-07
-1.6423e-06
4.89517e-07
-1.92079e-06
5.20047e-07
-2.2009e-06
5.40635e-07
-2.47858e-06
5.5178e-07
-2.75112e-06
5.54958e-07
-3.01685e-06
5.51949e-07
-3.27501e-06
5.44573e-07
-3.52552e-06
5.3454e-07
-3.76875e-06
5.23211e-07
-4.00529e-06
5.11566e-07
-4.23579e-06
5.0024e-07
-4.46088e-06
4.89576e-07
-4.68111e-06
4.797e-07
-4.89688e-06
4.70586e-07
-5.1085e-06
4.62105e-07
-5.31613e-06
4.5407e-07
-5.5198e-06
4.46265e-07
-5.71943e-06
4.38464e-07
-5.91485e-06
4.3044e-07
-6.1058e-06
4.21984e-07
-6.29194e-06
4.12898e-07
-6.47284e-06
4.03011e-07
-6.64804e-06
3.92172e-07
-6.81703e-06
3.80255e-07
-6.97926e-06
3.6716e-07
-7.13416e-06
3.52812e-07
-7.28113e-06
3.37157e-07
-7.41959e-06
3.20162e-07
-7.54892e-06
3.01816e-07
-7.66855e-06
2.82121e-07
-7.77789e-06
2.61095e-07
-7.87637e-06
2.38769e-07
-7.96345e-06
2.15179e-07
-8.03861e-06
1.90366e-07
-8.10137e-06
1.6437e-07
-8.1513e-06
1.37232e-07
-8.18802e-06
1.08988e-07
-8.21134e-06
7.96743e-08
-8.22141e-06
4.93892e-08
-8.21901e-06
1.84906e-08
-8.20527e-06
-1.22457e-08
-8.17896e-06
-4.25073e-08
-8.13803e-06
-7.27693e-08
-8.0821e-06
-1.0328e-07
-8.01103e-06
-1.33943e-07
-7.92477e-06
-1.64682e-07
-7.82335e-06
-1.95381e-07
-7.70682e-06
-2.25923e-07
-7.57534e-06
-2.56187e-07
-7.42909e-06
-2.8606e-07
-7.2683e-06
-3.15423e-07
-7.0933e-06
-3.44168e-07
-6.90442e-06
-3.72176e-07
-6.70209e-06
-3.9934e-07
-6.48676e-06
-4.25546e-07
-6.25897e-06
-4.50686e-07
-6.0193e-06
-4.74651e-07
-5.76835e-06
-4.97422e-07
-5.50675e-06
-5.19e-07
-5.23522e-06
-5.39138e-07
-4.95435e-06
-5.5797e-07
-4.66476e-06
-5.75666e-07
-4.36718e-06
-5.91849e-07
-4.06244e-06
-6.06311e-07
-3.75138e-06
-6.19084e-07
-3.43483e-06
-6.30194e-07
-3.1136e-06
-6.39664e-07
-2.7885e-06
-6.47526e-07
-2.4603e-06
-6.53835e-07
-2.12973e-06
-6.58675e-07
-1.79746e-06
-6.62166e-07
-1.46408e-06
-6.64465e-07
-1.1301e-06
-6.65761e-07
-7.95901e-07
-6.66256e-07
-4.61783e-07
-6.66169e-07
-1.27915e-07
-6.6564e-07
2.05562e-07
-6.64999e-07
5.38631e-07
-6.63806e-07
8.70602e-07
-6.6257e-07
1.20132e-06
-6.57832e-07
1.52817e-06
-6.55662e-07
1.84862e-06
-6.29251e-07
2.14257e-06
-6.02383e-07
-3.3804e-07
2.38768e-06
6.97827e-08
-2.63053e-07
9.24032e-08
-1.88355e-07
8.73239e-08
-1.06096e-07
5.94532e-08
-3.35622e-08
1.31965e-08
3.14612e-08
-5.04063e-08
9.04351e-08
-1.31177e-07
1.4598e-07
-2.30398e-07
2.00303e-07
-3.50476e-07
2.55539e-07
-4.92885e-07
3.14171e-07
-6.58576e-07
3.77747e-07
-8.47275e-07
4.44992e-07
-1.05658e-06
5.13048e-07
-1.28172e-06
5.7869e-07
-1.51682e-06
6.38544e-07
-1.7563e-06
6.89367e-07
-1.99562e-06
7.28839e-07
-2.23165e-06
7.56065e-07
-2.46258e-06
7.71564e-07
-2.68771e-06
7.76901e-07
-2.90693e-06
7.7417e-07
-3.12057e-06
7.65585e-07
-3.32928e-06
7.53286e-07
-3.53374e-06
7.38988e-07
-3.7345e-06
7.23972e-07
-3.93206e-06
7.09116e-07
-4.12677e-06
6.94941e-07
-4.31888e-06
6.81686e-07
-4.50857e-06
6.69382e-07
-4.69591e-06
6.57918e-07
-4.8809e-06
6.4709e-07
-5.06348e-06
6.36638e-07
-5.24349e-06
6.26274e-07
-5.42074e-06
6.15705e-07
-5.59495e-06
6.04641e-07
-5.76578e-06
5.92809e-07
-5.93284e-06
5.79958e-07
-6.0957e-06
5.65864e-07
-6.25387e-06
5.50332e-07
-6.40681e-06
5.33197e-07
-6.55398e-06
5.14327e-07
-6.6948e-06
4.93622e-07
-6.82866e-06
4.71012e-07
-6.95495e-06
4.46454e-07
-7.07307e-06
4.19935e-07
-7.18242e-06
3.91462e-07
-7.28239e-06
3.61065e-07
-7.37241e-06
3.28792e-07
-7.45194e-06
2.94705e-07
-7.52046e-06
2.58879e-07
-7.57749e-06
2.214e-07
-7.62263e-06
1.82372e-07
-7.65557e-06
1.41916e-07
-7.67609e-06
1.0019e-07
-7.68415e-06
5.74348e-08
-7.67972e-06
1.40486e-08
-7.66243e-06
-2.95474e-08
-7.6315e-06
-7.34489e-08
-7.58636e-06
-1.17933e-07
-7.52675e-06
-1.62907e-07
-7.45254e-06
-2.08175e-07
-7.36367e-06
-2.53571e-07
-7.26015e-06
-2.98917e-07
-7.14206e-06
-3.44037e-07
-7.0095e-06
-3.88754e-07
-6.86267e-06
-4.32898e-07
-6.7018e-06
-4.76296e-07
-6.52716e-06
-5.18787e-07
-6.33911e-06
-5.60203e-07
-6.13803e-06
-6.00385e-07
-5.92435e-06
-6.39172e-07
-5.69859e-06
-6.76394e-07
-5.4613e-06
-7.11895e-07
-5.21306e-06
-7.45622e-07
-4.95452e-06
-7.77506e-07
-4.68632e-06
-8.07304e-07
-4.40907e-06
-8.35199e-07
-4.1234e-06
-8.61317e-07
-3.83001e-06
-8.85223e-07
-3.52968e-06
-9.06626e-07
-3.22323e-06
-9.25525e-07
-2.91146e-06
-9.41953e-07
-2.59517e-06
-9.55941e-07
-2.27515e-06
-9.67538e-07
-1.95215e-06
-9.76825e-07
-1.62689e-06
-9.83929e-07
-1.30002e-06
-9.89031e-07
-9.72113e-07
-9.92366e-07
-6.43651e-07
-9.94215e-07
-3.15016e-07
-9.94885e-07
1.35266e-08
-9.94705e-07
3.41797e-07
-9.93904e-07
6.69617e-07
-9.92811e-07
9.96982e-07
-9.91163e-07
1.32356e-06
-9.89139e-07
1.64937e-06
-9.83631e-07
1.97158e-06
-9.7787e-07
2.28922e-06
-9.46883e-07
2.58759e-06
-9.00743e-07
-6.27669e-07
2.87722e-06
1.91388e-08
-2.82213e-07
4.00296e-09
-1.73233e-07
-3.03581e-08
-7.17468e-08
-8.17532e-08
1.78229e-08
-1.48438e-07
9.8137e-08
-2.30915e-07
1.72905e-07
-3.30345e-07
2.45402e-07
-4.48143e-07
3.18094e-07
-5.85388e-07
3.92777e-07
-7.41894e-07
4.70671e-07
-9.15712e-07
5.5156e-07
-1.10361e-06
6.32883e-07
-1.30149e-06
7.1092e-07
-1.50477e-06
7.81967e-07
-1.70905e-06
8.42817e-07
-1.91093e-06
8.91248e-07
-2.10843e-06
9.26329e-07
-2.30081e-06
9.4844e-07
-2.48825e-06
9.59006e-07
-2.67144e-06
9.60083e-07
-2.8512e-06
9.53928e-07
-3.02838e-06
9.42757e-07
-3.20363e-06
9.28536e-07
-3.37743e-06
9.12785e-07
-3.55008e-06
8.96623e-07
-3.72176e-06
8.80791e-07
-3.89253e-06
8.65703e-07
-4.06237e-06
8.51519e-07
-4.2312e-06
8.38213e-07
-4.39892e-06
8.25626e-07
-4.56535e-06
8.13514e-07
-4.7303e-06
8.01582e-07
-4.89353e-06
7.89499e-07
-5.05476e-06
7.76926e-07
-5.21365e-06
7.63527e-07
-5.36983e-06
7.48985e-07
-5.52288e-06
7.33002e-07
-5.67233e-06
7.15312e-07
-5.81768e-06
6.95679e-07
-5.95839e-06
6.73905e-07
-6.0939e-06
6.49829e-07
-6.22361e-06
6.23329e-07
-6.34692e-06
5.9432e-07
-6.46322e-06
5.62754e-07
-6.5719e-06
5.28613e-07
-6.67236e-06
4.91915e-07
-6.764e-06
4.52702e-07
-6.84625e-06
4.11043e-07
-6.91858e-06
3.67028e-07
-6.98047e-06
3.20766e-07
-7.03146e-06
2.72391e-07
-7.07115e-06
2.22056e-07
-7.09918e-06
1.69946e-07
-7.11528e-06
1.16282e-07
-7.11919e-06
6.134e-08
-7.11061e-06
5.45867e-09
-7.08906e-06
-5.11171e-08
-7.05405e-06
-1.08472e-07
-7.0053e-06
-1.66692e-07
-6.94265e-06
-2.25581e-07
-6.86596e-06
-2.84885e-07
-6.77518e-06
-3.44369e-07
-6.67031e-06
-4.03797e-07
-6.55143e-06
-4.62934e-07
-6.41865e-06
-5.2155e-07
-6.27213e-06
-5.79419e-07
-6.11211e-06
-6.36319e-07
-5.93886e-06
-6.92032e-07
-5.75269e-06
-7.46347e-07
-5.55399e-06
-7.99057e-07
-5.34317e-06
-8.49951e-07
-5.12071e-06
-8.98814e-07
-4.88712e-06
-9.45436e-07
-4.643e-06
-9.89708e-07
-4.38897e-06
-1.0315e-06
-4.12563e-06
-1.07061e-06
-3.85358e-06
-1.10723e-06
-3.57346e-06
-1.14142e-06
-3.28594e-06
-1.17273e-06
-2.99177e-06
-1.20078e-06
-2.69172e-06
-1.22556e-06
-2.38657e-06
-1.24708e-06
-2.07711e-06
-1.2654e-06
-1.76408e-06
-1.28056e-06
-1.44822e-06
-1.29268e-06
-1.13022e-06
-1.30192e-06
-8.10713e-07
-1.30854e-06
-4.90247e-07
-1.31283e-06
-1.69279e-07
-1.31518e-06
1.51833e-07
-1.316e-06
4.72814e-07
-1.31569e-06
7.93497e-07
-1.31459e-06
1.11376e-06
-1.31308e-06
1.4336e-06
-1.31102e-06
1.75289e-06
-1.30843e-06
2.07163e-06
-1.30238e-06
2.38755e-06
-1.2938e-06
2.70025e-06
-1.25959e-06
3.00133e-06
-1.20183e-06
-9.3573e-07
3.30938e-06
-2.36872e-08
-2.58544e-07
-7.30027e-08
-1.23929e-07
-1.33697e-07
-1.1061e-08
-2.04857e-07
8.89755e-08
-2.87319e-07
1.80592e-07
-3.83021e-07
2.68601e-07
-4.93544e-07
3.5592e-07
-6.19673e-07
4.44216e-07
-7.61088e-07
5.34187e-07
-9.16005e-07
6.25583e-07
-1.08121e-06
7.16759e-07
-1.25288e-06
8.04548e-07
-1.42722e-06
8.85254e-07
-1.60088e-06
9.5563e-07
-1.77143e-06
1.01337e-06
-1.93756e-06
1.05737e-06
-2.099e-06
1.08777e-06
-2.25628e-06
1.10572e-06
-2.41033e-06
1.11305e-06
-2.56216e-06
1.11191e-06
-2.71272e-06
1.10448e-06
-2.86273e-06
1.09277e-06
-3.01269e-06
1.07848e-06
-3.16284e-06
1.06294e-06
-3.31331e-06
1.04708e-06
-3.46406e-06
1.03155e-06
-3.61502e-06
1.01666e-06
-3.76603e-06
1.00252e-06
-3.91689e-06
9.89076e-07
-4.06741e-06
9.76132e-07
-4.21732e-06
9.63421e-07
-4.36636e-06
9.5062e-07
-4.51423e-06
9.37368e-07
-4.66061e-06
9.23294e-07
-4.80511e-06
9.08029e-07
-4.94735e-06
8.91218e-07
-5.08688e-06
8.72526e-07
-5.22321e-06
8.51647e-07
-5.35585e-06
8.28313e-07
-5.48424e-06
8.02294e-07
-5.60782e-06
7.73405e-07
-5.726e-06
7.41506e-07
-5.83818e-06
7.065e-07
-5.94377e-06
6.68334e-07
-6.04215e-06
6.26995e-07
-6.13274e-06
5.82508e-07
-6.21497e-06
5.34931e-07
-6.28829e-06
4.84355e-07
-6.35216e-06
4.30896e-07
-6.40609e-06
3.747e-07
-6.44964e-06
3.15936e-07
-6.48239e-06
2.54802e-07
-6.50397e-06
1.91524e-07
-6.51405e-06
1.26355e-07
-6.5123e-06
5.95797e-08
-6.49834e-06
-8.5074e-09
-6.47176e-06
-7.77094e-08
-6.43222e-06
-1.4802e-07
-6.37954e-06
-2.19393e-07
-6.31355e-06
-2.9158e-07
-6.23417e-06
-3.64285e-07
-6.14133e-06
-4.37216e-07
-6.03506e-06
-5.10081e-07
-5.91541e-06
-5.82596e-07
-5.7825e-06
-6.54474e-07
-5.63648e-06
-7.2544e-07
-5.47757e-06
-7.9522e-07
-5.30604e-06
-8.63548e-07
-5.1222e-06
-9.30166e-07
-4.9264e-06
-9.94825e-07
-4.71904e-06
-1.05727e-06
-4.50057e-06
-1.11725e-06
-4.27148e-06
-1.1745e-06
-4.03234e-06
-1.22883e-06
-3.78375e-06
-1.28007e-06
-3.52627e-06
-1.32807e-06
-3.26051e-06
-1.37297e-06
-2.98708e-06
-1.41484e-06
-2.70662e-06
-1.45318e-06
-2.41985e-06
-1.48754e-06
-2.12752e-06
-1.51789e-06
-1.83036e-06
-1.54424e-06
-1.52911e-06
-1.56664e-06
-1.22451e-06
-1.58516e-06
-9.17247e-07
-1.59993e-06
-6.07993e-07
-1.61117e-06
-2.97344e-07
-1.61918e-06
1.41799e-08
-1.62435e-06
3.2614e-07
-1.62714e-06
6.38192e-07
-1.62804e-06
9.50095e-07
-1.62758e-06
1.26171e-06
-1.6262e-06
1.57296e-06
-1.62431e-06
1.8839e-06
-1.62194e-06
2.19445e-06
-1.61897e-06
2.5047e-06
-1.61261e-06
2.81296e-06
-1.60205e-06
3.11948e-06
-1.56609e-06
3.41995e-06
-1.5023e-06
-1.25113e-06
3.73536e-06
-5.77101e-08
-2.00853e-07
-1.36529e-07
-4.51201e-08
-2.17811e-07
7.02143e-08
-3.03347e-07
1.74506e-07
-3.96571e-07
2.73811e-07
-4.99901e-07
3.71926e-07
-6.14572e-07
4.70586e-07
-7.40591e-07
5.70231e-07
-8.76724e-07
6.70316e-07
-1.02053e-06
7.69383e-07
-1.16877e-06
8.64994e-07
-1.31819e-06
9.53968e-07
-1.46609e-06
1.03315e-06
-1.61058e-06
1.10012e-06
-1.75074e-06
1.15351e-06
-1.8865e-06
1.19313e-06
-2.0185e-06
1.21977e-06
-2.14772e-06
1.23494e-06
-2.27524e-06
1.24056e-06
-2.40205e-06
1.23872e-06
-2.52897e-06
1.23139e-06
-2.65656e-06
1.22036e-06
-2.78515e-06
1.20708e-06
-2.9149e-06
1.19268e-06
-3.0458e-06
1.17798e-06
-3.17774e-06
1.16349e-06
-3.31055e-06
1.14947e-06
-3.44402e-06
1.13599e-06
-3.5779e-06
1.12294e-06
-3.7119e-06
1.11013e-06
-3.84574e-06
1.09726e-06
-3.9791e-06
1.08398e-06
-4.11166e-06
1.06992e-06
-4.24304e-06
1.05467e-06
-4.37286e-06
1.03785e-06
-4.50071e-06
1.01906e-06
-4.62612e-06
9.97933e-07
-4.74861e-06
9.74137e-07
-4.86767e-06
9.4737e-07
-4.98276e-06
9.17379e-07
-5.09331e-06
8.83957e-07
-5.19876e-06
8.4695e-07
-5.29852e-06
8.06255e-07
-5.39201e-06
7.61818e-07
-5.47864e-06
7.13632e-07
-5.55787e-06
6.61732e-07
-5.62914e-06
6.06195e-07
-5.69192e-06
5.47133e-07
-5.74571e-06
4.84691e-07
-5.79006e-06
4.19042e-07
-5.82451e-06
3.50392e-07
-5.84869e-06
2.78971e-07
-5.8622e-06
2.05035e-07
-5.86472e-06
1.28862e-07
-5.85588e-06
5.07412e-08
-5.83536e-06
-2.9046e-08
-5.80278e-06
-1.10297e-07
-5.7579e-06
-1.92914e-07
-5.70055e-06
-2.76752e-07
-5.63062e-06
-3.61528e-07
-5.54801e-06
-4.46905e-07
-5.4527e-06
-5.32545e-07
-5.34469e-06
-6.18107e-07
-5.22404e-06
-7.03257e-07
-5.09086e-06
-7.8766e-07
-4.94531e-06
-8.70992e-07
-4.7876e-06
-9.52929e-07
-4.61798e-06
-1.03316e-06
-4.43674e-06
-1.11138e-06
-4.24423e-06
-1.18731e-06
-4.04081e-06
-1.26065e-06
-3.82692e-06
-1.33111e-06
-3.60301e-06
-1.39838e-06
-3.36961e-06
-1.46219e-06
-3.12731e-06
-1.52236e-06
-2.87663e-06
-1.57873e-06
-2.61818e-06
-1.63141e-06
-2.35251e-06
-1.68049e-06
-2.08027e-06
-1.72541e-06
-1.80212e-06
-1.76568e-06
-1.51876e-06
-1.80124e-06
-1.23089e-06
-1.8321e-06
-9.39222e-07
-1.8583e-06
-6.44436e-07
-1.87994e-06
-3.47198e-07
-1.89716e-06
-4.81299e-08
-1.91024e-06
2.52201e-07
-1.91951e-06
5.53299e-07
-1.92544e-06
8.54758e-07
-1.92859e-06
1.15627e-06
-1.92956e-06
1.45763e-06
-1.92894e-06
1.75873e-06
-1.92731e-06
2.05955e-06
-1.92514e-06
2.36018e-06
-1.92257e-06
2.66065e-06
-1.91943e-06
2.96108e-06
-1.91305e-06
3.26038e-06
-1.90134e-06
3.5594e-06
-1.86512e-06
3.85635e-06
-1.79925e-06
-1.56739e-06
4.17261e-06
-9.43781e-08
-1.06491e-07
-1.85235e-07
4.57291e-08
-2.78226e-07
1.632e-07
-3.73372e-07
2.69647e-07
-4.72979e-07
3.73415e-07
-5.79011e-07
4.77954e-07
-6.92228e-07
5.838e-07
-8.1217e-07
6.90169e-07
-9.373e-07
7.95442e-07
-1.0653e-06
8.97375e-07
-1.19355e-06
9.93247e-07
-1.3198e-06
1.08021e-06
-1.44245e-06
1.1558e-06
-1.56077e-06
1.21843e-06
-1.67476e-06
1.2675e-06
-1.78504e-06
1.30341e-06
-1.89257e-06
1.3273e-06
-1.99844e-06
1.3408e-06
-2.10368e-06
1.3458e-06
-2.20916e-06
1.3442e-06
-2.31555e-06
1.33778e-06
-2.4233e-06
1.3281e-06
-2.53263e-06
1.31641e-06
-2.64363e-06
1.30368e-06
-2.75624e-06
1.29059e-06
-2.87032e-06
1.27756e-06
-2.98566e-06
1.2648e-06
-3.102e-06
1.25232e-06
-3.21905e-06
1.24e-06
-3.33652e-06
1.22759e-06
-3.45407e-06
1.2148e-06
-3.57136e-06
1.20127e-06
-3.68804e-06
1.18659e-06
-3.80372e-06
1.17035e-06
-3.918e-06
1.15213e-06
-4.03045e-06
1.13151e-06
-4.14062e-06
1.1081e-06
-4.24802e-06
1.08154e-06
-4.35215e-06
1.05149e-06
-4.45247e-06
1.0177e-06
-4.54845e-06
9.79932e-07
-4.63953e-06
9.38029e-07
-4.72517e-06
8.91884e-07
-4.8048e-06
8.41447e-07
-4.87789e-06
7.86721e-07
-4.94391e-06
7.27755e-07
-5.00236e-06
6.64645e-07
-5.05276e-06
5.97526e-07
-5.09463e-06
5.26567e-07
-5.12756e-06
4.51971e-07
-5.15115e-06
3.73972e-07
-5.16501e-06
2.92827e-07
-5.1688e-06
2.0882e-07
-5.16218e-06
1.22245e-07
-5.14485e-06
3.34036e-08
-5.11649e-06
-5.74182e-08
-5.0768e-06
-1.4999e-07
-5.02559e-06
-2.44136e-07
-4.96272e-06
-3.39638e-07
-4.88808e-06
-4.36178e-07
-4.80161e-06
-5.33387e-07
-4.70329e-06
-6.30884e-07
-4.59312e-06
-7.28286e-07
-4.47117e-06
-8.25215e-07
-4.33754e-06
-9.21289e-07
-4.1924e-06
-1.01614e-06
-4.03592e-06
-1.1094e-06
-3.86836e-06
-1.20071e-06
-3.68999e-06
-1.28973e-06
-3.50114e-06
-1.37613e-06
-3.30216e-06
-1.4596e-06
-3.09344e-06
-1.53981e-06
-2.8754e-06
-1.6164e-06
-2.64854e-06
-1.68904e-06
-2.41338e-06
-1.75751e-06
-2.17047e-06
-1.82163e-06
-1.92036e-06
-1.88152e-06
-1.66357e-06
-1.93727e-06
-1.40071e-06
-1.98826e-06
-1.13242e-06
-2.03397e-06
-8.59337e-07
-2.07432e-06
-5.82114e-07
-2.10932e-06
-3.01407e-07
-2.13901e-06
-1.78598e-08
-2.16348e-06
2.67907e-07
-2.18293e-06
5.55308e-07
-2.19763e-06
8.43818e-07
-2.20801e-06
1.13298e-06
-2.2146e-06
1.42243e-06
-2.21804e-06
1.7119e-06
-2.21902e-06
2.00122e-06
-2.21826e-06
2.29035e-06
-2.21642e-06
2.5793e-06
-2.21407e-06
2.86822e-06
-2.21148e-06
3.15721e-06
-2.20841e-06
3.44653e-06
-2.20235e-06
3.73554e-06
-2.19034e-06
4.02569e-06
-2.15526e-06
4.31661e-06
-2.09016e-06
-1.88e-06
4.62924e-06
-1.09838e-07
3.33313e-09
-2.15025e-07
1.5091e-07
-3.16281e-07
2.64452e-07
-4.16453e-07
3.69816e-07
-5.18085e-07
4.75043e-07
-6.22525e-07
5.8239e-07
-7.30101e-07
6.91373e-07
-8.40186e-07
8.0025e-07
-9.51393e-07
9.06646e-07
-1.06192e-06
1.0079e-06
-1.16998e-06
1.10131e-06
-1.27426e-06
1.18448e-06
-1.37408e-06
1.25562e-06
-1.46944e-06
1.31379e-06
-1.5609e-06
1.35896e-06
-1.64934e-06
1.39185e-06
-1.73582e-06
1.41378e-06
-1.82139e-06
1.42636e-06
-1.90697e-06
1.43138e-06
-1.99334e-06
1.43056e-06
-2.08103e-06
1.42547e-06
-2.1704e-06
1.41747e-06
-2.26163e-06
1.40763e-06
-2.35474e-06
1.39679e-06
-2.44967e-06
1.38552e-06
-2.54625e-06
1.37414e-06
-2.64425e-06
1.3628e-06
-2.74339e-06
1.35146e-06
-2.84336e-06
1.33997e-06
-2.94384e-06
1.32806e-06
-3.04447e-06
1.31543e-06
-3.1449e-06
1.30169e-06
-3.24475e-06
1.28643e-06
-3.34362e-06
1.26921e-06
-3.4411e-06
1.24961e-06
-3.53677e-06
1.22718e-06
-3.63018e-06
1.20151e-06
-3.72086e-06
1.17221e-06
-3.80831e-06
1.13894e-06
-3.89203e-06
1.10142e-06
-3.97151e-06
1.05941e-06
-4.04624e-06
1.01275e-06
-4.1157e-06
9.61343e-07
-4.1794e-06
9.05141e-07
-4.23684e-06
8.44159e-07
-4.28755e-06
7.78468e-07
-4.33109e-06
7.08182e-07
-4.36702e-06
6.33457e-07
-4.39495e-06
5.5449e-07
-4.41448e-06
4.71506e-07
-4.42528e-06
3.84764e-07
-4.427e-06
2.94546e-07
-4.41934e-06
2.01155e-07
-4.402e-06
1.04903e-07
-4.37471e-06
6.10686e-09
-4.3372e-06
-9.49359e-08
-4.28924e-06
-1.9796e-07
-4.23066e-06
-3.02726e-07
-4.16135e-06
-4.0896e-07
-4.08123e-06
-5.16313e-07
-3.99025e-06
-6.24387e-07
-3.88838e-06
-7.32763e-07
-3.77566e-06
-8.41022e-07
-3.65213e-06
-9.48746e-07
-3.51792e-06
-1.05551e-06
-3.37314e-06
-1.16091e-06
-3.218e-06
-1.26453e-06
-3.05272e-06
-1.36598e-06
-2.87755e-06
-1.46487e-06
-2.6928e-06
-1.56085e-06
-2.4988e-06
-1.65357e-06
-2.29591e-06
-1.74268e-06
-2.0845e-06
-1.82778e-06
-1.86503e-06
-1.90849e-06
-1.63796e-06
-1.98455e-06
-1.40385e-06
-2.05573e-06
-1.16318e-06
-2.12218e-06
-9.16443e-07
-2.184e-06
-6.64219e-07
-2.24048e-06
-4.07086e-07
-2.2911e-06
-1.45631e-07
-2.33577e-06
1.19547e-07
-2.37449e-06
3.87845e-07
-2.4073e-06
6.5867e-07
-2.4343e-06
9.31451e-07
-2.4557e-06
1.20565e-06
-2.47183e-06
1.4808e-06
-2.48315e-06
1.75648e-06
-2.49028e-06
2.03237e-06
-2.49393e-06
2.30826e-06
-2.4949e-06
2.58403e-06
-2.49402e-06
2.85968e-06
-2.49206e-06
3.13529e-06
-2.48968e-06
3.41106e-06
-2.48725e-06
3.68718e-06
-2.48452e-06
3.96405e-06
-2.47922e-06
4.24144e-06
-2.46773e-06
4.52129e-06
-2.43509e-06
4.80398e-06
-2.37286e-06
-2.18567e-06
5.10965e-06
-1.18124e-07
1.21446e-07
-2.30084e-07
2.62865e-07
-3.34831e-07
3.69196e-07
-4.36061e-07
4.71043e-07
-5.3592e-07
5.74899e-07
-6.35312e-07
6.81779e-07
-7.34334e-07
7.90392e-07
-8.32421e-07
8.98334e-07
-9.28548e-07
1.00277e-06
-1.02153e-06
1.10088e-06
-1.11038e-06
1.19015e-06
-1.19451e-06
1.26861e-06
-1.2739e-06
1.33501e-06
-1.349e-06
1.38889e-06
-1.42062e-06
1.43058e-06
-1.48975e-06
1.46099e-06
-1.55744e-06
1.48146e-06
-1.62465e-06
1.49357e-06
-1.69222e-06
1.49895e-06
-1.7608e-06
1.49914e-06
-1.83086e-06
1.49553e-06
-1.9027e-06
1.4893e-06
-1.97644e-06
1.48137e-06
-2.05208e-06
1.47244e-06
-2.12953e-06
1.46296e-06