/*--------------------------------*- C++ -*----------------------------------*\
| =========                 |                                                 |
| \\      /  F ield         | OpenFOAM: The Open Source CFD Toolbox           |
|  \\    /   O peration     | Version:  5.x                                   |
|   \\  /    A nd           | Web:      www.OpenFOAM.org                      |
|    \\/     M anipulation  |                                                 |
\*---------------------------------------------------------------------------*/
FoamFile
{
    version     2.0;
    format      ascii;
    class       volVectorField;
    location    "231";
    object      U;
}
// * * * * * * * * * * * * * * * * * * * * * * * * * * * * * * * * * * * * * //

dimensions      [0 1 -1 0 0 0 0];

internalField   nonuniform List<vector> 
5760
(
(29.9347 -0.776482 0)
(29.8447 -0.803126 0)
(29.7196 -0.606717 0)
(29.56 -0.435454 0)
(29.3935 -0.311424 0)
(29.2354 -0.22474 0)
(29.0891 -0.163905 0)
(28.9542 -0.120585 0)
(28.8319 -0.0887886 0)
(28.7203 -0.0654242 0)
(28.6203 -0.0476837 0)
(28.529 -0.0343492 0)
(28.4476 -0.0242307 0)
(28.3733 -0.0163802 0)
(28.3069 -0.010337 0)
(28.2492 -0.00653712 0)
(28.1862 0.00193446 0)
(28.1631 -0.0173531 0)
(30.0289 0.215042 0)
(30.1069 0.3977 0)
(30.1511 0.398143 0)
(30.1709 0.34491 0)
(30.1869 0.289712 0)
(30.2019 0.242411 0)
(30.212 0.203296 0)
(30.2161 0.17219 0)
(30.2141 0.147264 0)
(30.2085 0.12752 0)
(30.1985 0.111272 0)
(30.1865 0.0980902 0)
(30.1714 0.0869404 0)
(30.1557 0.0777204 0)
(30.1377 0.0694271 0)
(30.1208 0.0635254 0)
(30.1027 0.0550095 0)
(30.0934 0.059306 0)
(29.9949 0.031306 0)
(29.995 0.00240398 0)
(30.0085 -0.0445403 0)
(30.0277 -0.0620904 0)
(30.0485 -0.0567184 0)
(30.0686 -0.0445863 0)
(30.0863 -0.0321096 0)
(30.1012 -0.0208962 0)
(30.1136 -0.0110089 0)
(30.1241 -0.00282634 0)
(30.1329 0.00394478 0)
(30.1404 0.00933716 0)
(30.1467 0.0136839 0)
(30.1521 0.0170599 0)
(30.1567 0.0195638 0)
(30.1611 0.021385 0)
(30.1651 0.0220618 0)
(30.1705 0.0217363 0)
(29.9955 -0.00202957 0)
(29.9917 0.00408023 0)
(30.0039 0.0194829 0)
(30.0189 0.0386569 0)
(30.0303 0.0534979 0)
(30.0398 0.0610752 0)
(30.049 0.063262 0)
(30.0578 0.0628563 0)
(30.0662 0.0612657 0)
(30.0744 0.0591755 0)
(30.0823 0.0567982 0)
(30.09 0.0543658 0)
(30.0975 0.0518757 0)
(30.1048 0.0494017 0)
(30.112 0.0467644 0)
(30.1191 0.0439917 0)
(30.1261 0.0403687 0)
(30.1331 0.0360313 0)
(29.9986 5.55734e-05 0)
(29.999 0.0163394 0)
(30.0079 0.0292785 0)
(30.0171 0.0332602 0)
(30.0236 0.0327249 0)
(30.0297 0.0309366 0)
(30.0367 0.0291821 0)
(30.0439 0.0279392 0)
(30.0511 0.02724 0)
(30.058 0.026864 0)
(30.0648 0.0266141 0)
(30.0716 0.0263521 0)
(30.0783 0.0259902 0)
(30.0849 0.0254483 0)
(30.0914 0.0245989 0)
(30.0979 0.0233466 0)
(30.1042 0.0213667 0)
(30.1103 0.0187104 0)
(29.9997 0.00283607 0)
(30.0012 0.0146366 0)
(30.0073 0.0219798 0)
(30.0146 0.0240924 0)
(30.0212 0.0256203 0)
(30.0277 0.027833 0)
(30.0345 0.0298856 0)
(30.0411 0.0313078 0)
(30.0474 0.0321403 0)
(30.0534 0.0324873 0)
(30.0593 0.0324052 0)
(30.0651 0.0319462 0)
(30.0708 0.0311479 0)
(30.0765 0.0300249 0)
(30.0822 0.0285384 0)
(30.0877 0.0266496 0)
(30.093 0.0242321 0)
(30.0979 0.0213632 0)
(30 0.00320974 0)
(30.0016 0.0112506 0)
(30.0063 0.0174625 0)
(30.0129 0.0211038 0)
(30.0195 0.0237915 0)
(30.0256 0.0258982 0)
(30.0317 0.0270351 0)
(30.0377 0.0272548 0)
(30.0435 0.0269233 0)
(30.0491 0.0262981 0)
(30.0547 0.0254695 0)
(30.0602 0.0244602 0)
(30.0656 0.0232715 0)
(30.071 0.0218874 0)
(30.0762 0.020268 0)
(30.0812 0.0183765 0)
(30.086 0.0161601 0)
(30.0904 0.0136759 0)
(30.0001 0.00289732 0)
(30.0017 0.00911661 0)
(30.0057 0.0145799 0)
(30.0114 0.018197 0)
(30.0173 0.0203799 0)
(30.0229 0.021724 0)
(30.0286 0.0224266 0)
(30.0343 0.0226263 0)
(30.0399 0.0225012 0)
(30.0455 0.0221547 0)
(30.0509 0.0216029 0)
(30.0563 0.0208348 0)
(30.0615 0.0198427 0)
(30.0665 0.0186207 0)
(30.0714 0.017159 0)
(30.0761 0.0154561 0)
(30.0804 0.013508 0)
(30.0844 0.0114067 0)
(30.0002 0.00246141 0)
(30.0017 0.00742222 0)
(30.0051 0.0118034 0)
(30.01 0.0148305 0)
(30.0152 0.016647 0)
(30.0205 0.0177716 0)
(30.0259 0.0184288 0)
(30.0313 0.018649 0)
(30.0367 0.0184815 0)
(30.042 0.0179976 0)
(30.0472 0.0172465 0)
(30.0522 0.0162549 0)
(30.0572 0.0150417 0)
(30.062 0.0136223 0)
(30.0666 0.0120094 0)
(30.071 0.0102219 0)
(30.0751 0.00828228 0)
(30.0789 0.00627259 0)
(30.0002 0.001915 0)
(30.0016 0.00563176 0)
(30.0045 0.00885297 0)
(30.0086 0.0111789 0)
(30.0132 0.0126304 0)
(30.0181 0.0134755 0)
(30.0231 0.0138685 0)
(30.0281 0.0138533 0)
(30.0332 0.0134874 0)
(30.0382 0.0128531 0)
(30.0431 0.012017 0)
(30.0479 0.0110181 0)
(30.0526 0.00987914 0)
(30.0571 0.00861665 0)
(30.0614 0.00724389 0)
(30.0656 0.0057787 0)
(30.0695 0.00422523 0)
(30.0731 0.00268296 0)
(30.0002 0.00120619 0)
(30.0014 0.00348747 0)
(30.0038 0.00540873 0)
(30.0072 0.0067859 0)
(30.0112 0.00758986 0)
(30.0155 0.00792248 0)
(30.02 0.00787691 0)
(30.0246 0.00749659 0)
(30.0293 0.00681123 0)
(30.034 0.00585585 0)
(30.0386 0.00466459 0)
(30.0432 0.00326722 0)
(30.0477 0.0016934 0)
(30.0521 -2.35723e-05 0)
(30.0563 -0.00184631 0)
(30.0603 -0.00373427 0)
(30.0641 -0.00564318 0)
(30.0676 -0.007544 0)
(30.0001 0.000358164 0)
(30.0011 0.000994015 0)
(30.0031 0.00142794 0)
(30.0059 0.0015718 0)
(30.0093 0.00140657 0)
(30.013 0.000990551 0)
(30.0169 0.000412537 0)
(30.0209 -0.000250721 0)
(30.025 -0.000948418 0)
(30.0289 -0.00165325 0)
(30.0328 -0.00235563 0)
(30.0366 -0.00305734 0)
(30.0404 -0.0037657 0)
(30.044 -0.00448872 0)
(30.0476 -0.00523414 0)
(30.0512 -0.00600025 0)
(30.0547 -0.00681101 0)
(30.0581 -0.00753908 0)
(30.0001 -0.000613499 0)
(30.0009 -0.0018738 0)
(30.0025 -0.0032168 0)
(30.0049 -0.0046358 0)
(30.0078 -0.00613382 0)
(30.0113 -0.00779833 0)
(30.0154 -0.00975016 0)
(30.0198 -0.0120605 0)
(30.0245 -0.0147252 0)
(30.0294 -0.0176879 0)
(30.0342 -0.0208703 0)
(30.039 -0.0241917 0)
(30.0436 -0.0275763 0)
(30.0481 -0.0309565 0)
(30.0522 -0.0342716 0)
(30.0561 -0.0374712 0)
(30.0596 -0.0405002 0)
(30.0629 -0.0433632 0)
(30.0001 -0.00140689 0)
(30.0007 -0.00422101 0)
(30.0021 -0.00725803 0)
(30.0043 -0.0104641 0)
(30.0068 -0.0134897 0)
(30.0091 -0.0159586 0)
(30.011 -0.0176701 0)
(30.0127 -0.0186485 0)
(30.0144 -0.019062 0)
(30.0163 -0.0191092 0)
(30.0185 -0.0189534 0)
(30.0209 -0.018712 0)
(30.0236 -0.018467 0)
(30.0266 -0.0182756 0)
(30.03 -0.0181802 0)
(30.0336 -0.0182073 0)
(30.0376 -0.0184159 0)
(30.0418 -0.0187103 0)
(30.0001 -0.00183802 0)
(30.0002 -0.00578679 0)
(30.0007 -0.00930092 0)
(30.0027 -0.0125827 0)
(30.0064 -0.0168047 0)
(30.0116 -0.0225469 0)
(30.0176 -0.0294102 0)
(30.0236 -0.0366712 0)
(30.0292 -0.0437966 0)
(30.0343 -0.0505136 0)
(30.039 -0.0567062 0)
(30.0433 -0.0623355 0)
(30.0472 -0.0674086 0)
(30.0508 -0.0719605 0)
(30.054 -0.0760371 0)
(30.0569 -0.0796875 0)
(30.0594 -0.0829148 0)
(30.0614 -0.0858393 0)
(29.9999 -0.000766623 0)
(30.0003 -0.0084859 0)
(30.0019 -0.0161915 0)
(30.0026 -0.0185025 0)
(30.0015 -0.0157305 0)
(30.0001 -0.0106029 0)
(30 -0.00536515 0)
(30.0015 -0.00113262 0)
(30.0042 0.00176483 0)
(30.0076 0.00335263 0)
(30.0115 0.00379207 0)
(30.0157 0.0032762 0)
(30.0201 0.00200225 0)
(30.0247 0.000149137 0)
(30.0293 -0.00212449 0)
(30.034 -0.00468127 0)
(30.039 -0.00745731 0)
(30.0443 -0.0102681 0)
(29.9968 0.00462604 0)
(29.9905 0.000214585 0)
(29.9961 -0.0178265 0)
(30.0081 -0.0438858 0)
(30.0184 -0.0697934 0)
(30.0248 -0.0903833 0)
(30.0283 -0.104907 0)
(30.0305 -0.114611 0)
(30.0323 -0.120981 0)
(30.0338 -0.125004 0)
(30.0355 -0.127423 0)
(30.0373 -0.128715 0)
(30.0393 -0.12929 0)
(30.0415 -0.129385 0)
(30.0439 -0.129207 0)
(30.0464 -0.12884 0)
(30.0488 -0.128368 0)
(30.0508 -0.127789 0)
(29.9928 -0.00729071 0)
(29.9715 0.0219157 0)
(29.9581 0.0704171 0)
(29.9561 0.104617 0)
(29.9637 0.118679 0)
(29.9762 0.11894 0)
(29.9897 0.11261 0)
(30.0026 0.102847 0)
(30.0146 0.0916437 0)
(30.0261 0.0797204 0)
(30.0369 0.067909 0)
(30.0473 0.0563601 0)
(30.0574 0.0453601 0)
(30.0672 0.0348428 0)
(30.0767 0.0248928 0)
(30.0862 0.0155074 0)
(30.0959 0.00670108 0)
(30.1051 -0.000828824 0)
(30.0126 -0.129974 0)
(30.0535 -0.285426 0)
(30.0744 -0.345463 0)
(30.0839 -0.346987 0)
(30.0992 -0.327215 0)
(30.1243 -0.301927 0)
(30.1565 -0.277909 0)
(30.1913 -0.256047 0)
(30.2275 -0.237354 0)
(30.2637 -0.221316 0)
(30.2999 -0.207841 0)
(30.3351 -0.196351 0)
(30.3695 -0.186684 0)
(30.4024 -0.178518 0)
(30.4343 -0.171782 0)
(30.4647 -0.166496 0)
(30.4955 -0.162756 0)
(30.5239 -0.161613 0)
(29.9801 0.466746 0)
(29.9738 0.556243 0)
(29.9522 0.518647 0)
(29.8905 0.406516 0)
(29.7963 0.310445 0)
(29.6844 0.236137 0)
(29.5614 0.179061 0)
(29.4317 0.13388 0)
(29.2971 0.0973571 0)
(29.1602 0.0670453 0)
(29.0216 0.0415408 0)
(28.8827 0.0197794 0)
(28.7438 0.0010617 0)
(28.6056 -0.0152007 0)
(28.4682 -0.0294574 0)
(28.332 -0.0423266 0)
(28.1953 -0.0541999 0)
(28.0604 -0.0671275 0)
(0.0525526 -0.0553472 0)
(0.124479 -0.0728542 2.34197e-18)
(0.185793 -0.0768944 0)
(0.245398 -0.0684022 -2.69092e-18)
(0.289065 -0.0421343 0)
(0.30577 -0.0283236 0)
(0.305037 -0.0116951 0)
(0.286271 0.00749057 0)
(0.253439 0.0214938 5.70579e-18)
(0.20614 0.0347962 0)
(0.146741 0.0474339 0)
(0.0747034 0.0605683 0)
(-0.0117646 0.0717175 0)
(-0.114658 0.0793481 -5.14711e-18)
(-0.238772 0.0879665 0)
(-0.386929 0.0989501 0)
(-0.55925 0.110783 2.51512e-18)
(-0.753626 0.121742 0)
(-0.966459 0.130589 1.74024e-18)
(-1.19341 0.136703 1.49158e-18)
(-1.42976 0.139903 0)
(-1.67145 0.140578 0)
(-1.91508 0.139307 0)
(-2.1581 0.136669 0)
(-2.39875 0.133202 0)
(-2.63603 0.12934 0)
(-2.86944 0.125391 7.52427e-19)
(-3.0989 0.121554 0)
(-3.32454 0.117934 0)
(-3.54665 0.11457 -1.26898e-18)
(-3.76552 0.111455 0)
(-3.98142 0.108553 0)
(-4.19457 0.105813 0)
(-4.40507 0.103177 0)
(-4.61294 0.100584 1.02518e-18)
(-4.81809 0.097979 9.89023e-19)
(-5.02033 0.0953107 9.55693e-19)
(-5.21936 0.0925348 0)
(-5.4148 0.0896145 8.96033e-19)
(-5.6062 0.0865207 0)
(-5.79304 0.083232 0)
(-5.97474 0.0797337 0)
(-6.15068 0.0760177 0)
(-6.32023 0.072081 0)
(-6.48271 0.0679254 7.54429e-19)
(-6.63745 0.0635567 -7.34267e-19)
(-6.78377 0.0589827 7.1469e-19)
(-6.921 0.0542127 0)
(-7.04847 0.0492536 0)
(-7.16554 0.0441078 0)
(-7.27156 0.0387664 0)
(-7.36587 0.0332047 0)
(-7.44778 0.0273721 0)
(-7.51655 0.0211961 0)
(-7.57132 0.01463 0)
(-7.61103 0.00781312 0)
(-7.63423 0.00126538 1.05666e-18)
(-7.63974 -0.00436059 1.01691e-18)
(-7.63205 -0.00934999 9.76061e-19)
(-7.61064 -0.0142704 -9.34011e-19)
(-7.57558 -0.0191328 0)
(-7.52674 -0.023941 0)
(-7.46403 -0.0286799 -7.99424e-19)
(-7.38742 -0.0333356 -7.51418e-19)
(-7.29692 -0.0378939 0)
(-7.1926 -0.0423424 0)
(-7.07458 -0.046668 5.96629e-19)
(-6.94301 -0.0508603 0)
(-6.79812 -0.0549074 0)
(-6.64016 -0.0588014 0)
(-6.46948 -0.0625329 0)
(-6.28646 -0.066096 0)
(-6.09155 -0.0694853 2.29487e-19)
(-5.88515 -0.0727103 1.59477e-19)
(-5.66775 -0.0757723 0)
(-5.43998 -0.0786533 1.06399e-20)
(-5.20225 -0.0814064 0)
(-4.95494 -0.0840263 0)
(-4.69875 -0.0864356 0)
(-4.4343 -0.0886436 -6.55024e-19)
(-4.1623 -0.0906617 0)
(-3.88346 -0.0924946 1.04128e-18)
(-3.59847 -0.0941476 0)
(-3.30803 -0.0956259 1.46588e-18)
(-3.0128 -0.0969397 -1.69442e-18)
(-2.71342 -0.0981029 0)
(-2.41051 -0.0991363 0)
(-2.10461 -0.100065 0)
(-1.79618 -0.100922 0)
(-1.48559 -0.101738 0)
(-1.17311 -0.102548 0)
(-0.858974 -0.10337 3.69746e-18)
(-0.543149 -0.10432 0)
(-0.226292 -0.105206 -4.44895e-18)
(0.0933509 -0.104525 0)
(0.409759 -0.100988 -4.63241e-18)
(0.736196 -0.0985137 0)
(1.03681 -0.0909538 0)
(1.38193 -0.0883951 0)
(1.52665 -0.0355708 0)
(0.0573776 -0.158761 -5.61954e-18)
(0.118491 -0.147997 -4.66002e-18)
(0.155731 -0.103186 0)
(0.173457 -0.0643401 1.4546e-18)
(0.169466 -0.0290092 0)
(0.146433 0.00365422 0)
(0.11015 0.0334231 4.89167e-18)
(0.0589579 0.0589317 0)
(-0.00791033 0.0813208 2.30123e-18)
(-0.0890137 0.104536 0)
(-0.187762 0.130669 3.51089e-18)
(-0.310197 0.159649 0)
(-0.458631 0.190257 0)
(-0.631228 0.221564 1.22624e-18)
(-0.824978 0.253232 -2.17702e-18)
(-1.0365 0.28321 0)
(-1.26139 0.308907 -2.59776e-18)
(-1.49472 0.328466 1.55724e-18)
(-1.73184 0.341079 -2.11869e-18)
(-1.96873 0.347026 -1.9365e-18)
(-2.20261 0.347344 0)
(-2.43172 0.343263 0)
(-2.65505 0.336009 -1.03174e-18)
(-2.87232 0.326824 9.70049e-19)
(-3.08372 0.31669 0)
(-3.28968 0.306322 -8.70231e-19)
(-3.49076 0.29619 4.13918e-19)
(-3.6875 0.286557 0)
(-3.88042 0.277535 0)
(-4.0699 0.269123 -7.28658e-19)
(-4.25626 0.261255 0)
(-4.43967 0.253827 1.35625e-18)
(-4.62023 0.246715 0)
(-4.79791 0.239792 0)
(-4.9726 0.232935 -6.15232e-19)
(-5.14411 0.226031 -5.96448e-19)
(-5.31217 0.218982 5.75858e-19)
(-5.47646 0.211706 0)
(-5.63658 0.204134 5.43197e-19)
(-5.7921 0.196218 0)
(-5.94257 0.18792 0)
(-6.08748 0.179221 0)
(-6.22631 0.170111 0)
(-6.35854 0.160592 -9.467e-19)
(-6.48363 0.150677 4.59312e-19)
(-6.60104 0.140384 4.48297e-19)
(-6.71023 0.129738 4.33944e-19)
(-6.81068 0.118769 8.44319e-19)
(-6.90188 0.107509 -8.19292e-19)
(-6.98333 0.0959868 0)
(-7.05454 0.0842317 0)
(-7.11508 0.0722656 0)
(-7.16453 0.060096 0)
(-7.20258 0.0477001 -1.38592e-18)
(-7.22911 0.0350266 1.33398e-18)
(-7.24439 0.0221146 0)
(-7.24929 0.00936823 -6.13256e-19)
(-7.24505 -0.00247602 5.86321e-19)
(-7.22816 -0.0135425 5.58039e-19)
(-7.19818 -0.0243728 5.27147e-19)
(-7.15485 -0.034983 0)
(-7.09803 -0.0453655 0)
(-7.02763 -0.0554861 4.3722e-19)
(-6.94361 -0.0653124 -4.10315e-19)
(-6.84599 -0.0748114 0)
(-6.73482 -0.0839551 0)
(-6.61021 -0.0927147 -3.11148e-19)
(-6.47233 -0.101067 0)
(-6.32137 -0.108985 0)
(-6.15759 -0.116451 0)
(-5.98129 -0.123441 0)
(-5.79284 -0.129938 -2.95461e-19)
(-5.59266 -0.135927 -1.09915e-19)
(-5.38117 -0.141428 -2.32822e-19)
(-5.15881 -0.146463 0)
(-4.92626 -0.150955 -4.88439e-21)
(-4.68391 -0.15496 0)
(-4.43215 -0.158575 0)
(-4.17165 -0.16169 0)
(-3.90297 -0.164258 2.76511e-19)
(-3.62683 -0.166312 0)
(-3.34393 -0.16788 -4.21466e-19)
(-3.05494 -0.168985 0)
(-2.76055 -0.169653 5.49617e-19)
(-2.46142 -0.169913 6.39915e-19)
(-2.15821 -0.169804 0)
(-1.8515 -0.169369 0)
(-1.54183 -0.168662 0)
(-1.22966 -0.167741 -1.84359e-18)
(-0.91535 -0.166666 0)
(-0.599168 -0.165499 0)
(-0.28134 -0.164265 1.1283e-18)
(0.038222 -0.163034 0)
(0.359088 -0.161697 -1.22588e-18)
(0.682402 -0.159868 0)
(1.00394 -0.156514 -1.28687e-18)
(1.33228 -0.153827 -2.64529e-18)
(1.64241 -0.145347 -2.69818e-18)
(1.98173 -0.137241 0)
(2.19499 -0.0699322 0)
(0.0384804 -0.253861 4.28376e-18)
(0.0743223 -0.196423 -2.28467e-18)
(0.0778797 -0.119589 0)
(0.0645684 -0.0536399 -3.54585e-18)
(0.0336534 0.00396737 0)
(-0.0118319 0.0537382 0)
(-0.0713629 0.098265 -2.73758e-18)
(-0.146084 0.139608 0)
(-0.237737 0.179787 -2.27613e-18)
(-0.346883 0.221359 0)
(-0.475017 0.266223 -1.88846e-18)
(-0.623622 0.313954 0)
(-0.791473 0.363053 0)
(-0.975076 0.41133 0)
(-1.1698 0.455816 3.89447e-18)
(-1.37073 0.493407 0)
(-1.57354 0.521804 3.25421e-18)
(-1.77501 0.540015 -9.9849e-19)
(-1.97305 0.548346 9.23959e-19)
(-2.16671 0.548069 8.60022e-19)
(-2.35576 0.54104 0)
(-2.54026 0.529203 1.51212e-18)
(-2.7207 0.514386 2.14064e-18)
(-2.89769 0.498068 -6.76246e-19)
(-3.07176 0.481351 0)
(-3.24335 0.464972 1.83915e-18)
(-3.41282 0.449358 -5.86608e-19)
(-3.58044 0.434702 1.12339e-18)
(-3.74638 0.421027 0)
(-3.91074 0.408249 2.07744e-18)
(-4.07356 0.396219 0)
(-4.23481 0.384752 -9.66648e-19)
(-4.3944 0.373655 0)
(-4.55219 0.362743 0)
(-4.70797 0.351842 -8.72403e-19)
(-4.86148 0.340798 0)
(-5.01241 0.329478 -1.63941e-18)
(-5.1604 0.317773 0)
(-5.30505 0.305596 -1.59787e-21)
(-5.44592 0.292884 1.49447e-18)
(-5.58253 0.279594 0)
(-5.71439 0.265703 0)
(-5.84097 0.251206 1.36568e-18)
(-5.96174 0.236112 6.63714e-19)
(-6.07615 0.220445 -1.92874e-18)
(-6.18366 0.204239 0)
(-6.28371 0.187535 6.02626e-19)
(-6.37579 0.170383 -5.85166e-19)
(-6.45936 0.152835 1.69659e-18)
(-6.53394 0.134946 1.09261e-18)
(-6.59904 0.116771 0)
(-6.65426 0.0983708 0)
(-6.69921 0.0798097 -9.78503e-19)
(-6.73362 0.0611691 1.88041e-18)
(-6.75735 0.0425704 -9.01421e-19)
(-6.77032 0.0242125 -8.62835e-19)
(-6.77238 0.00631555 0)
(-6.76307 -0.0111529 -1.56251e-18)
(-6.74137 -0.0283465 -7.39282e-19)
(-6.70701 -0.0452588 0)
(-6.65976 -0.0618285 0)
(-6.59947 -0.0780065 0)
(-6.52604 -0.0937355 0)
(-6.43944 -0.108963 5.28545e-19)
(-6.33965 -0.123637 9.77185e-19)
(-6.22675 -0.137713 0)
(-6.10083 -0.151147 8.0588e-19)
(-5.96204 -0.163903 -7.19812e-19)
(-5.81057 -0.175943 0)
(-5.64666 -0.187238 0)
(-5.47059 -0.197755 0)
(-5.2827 -0.207468 1.82922e-19)
(-5.08341 -0.216352 2.88048e-19)
(-4.87309 -0.224424 2.98381e-19)
(-4.65223 -0.231701 1.16098e-19)
(-4.42144 -0.238123 0)
(-4.18106 -0.243773 0)
(-3.9316 -0.248734 0)
(-3.67362 -0.252893 0)
(-3.40769 -0.256188 3.05584e-19)
(-3.13449 -0.258658 3.87952e-19)
(-2.8547 -0.260345 0)
(-2.56897 -0.261287 -5.50108e-19)
(-2.27798 -0.261527 -6.40295e-19)
(-1.98238 -0.261114 0)
(-1.68279 -0.260107 0)
(-1.3798 -0.258578 0)
(-1.07394 -0.25661 9.37025e-19)
(-0.765627 -0.254292 1.02109e-18)
(-0.455235 -0.251715 0)
(-0.143003 -0.248969 0)
(0.170876 -0.246126 -1.22147e-18)
(0.486443 -0.243259 0)
(0.803245 -0.24025 1.31082e-18)
(1.12237 -0.237206 0)
(1.44084 -0.233254 -1.37343e-18)
(1.76497 -0.229652 1.43006e-18)
(2.07496 -0.219441 1.46566e-18)
(2.40839 -0.207007 2.99256e-18)
(2.65482 -0.133741 0)
(0.007513 -0.297754 0)
(0.0130754 -0.194163 3.47985e-18)
(-0.00683076 -0.0969961 0)
(-0.0434 -0.0125268 2.59905e-18)
(-0.0923874 0.060935 0)
(-0.154129 0.126213 -4.11847e-18)
(-0.229443 0.186688 -3.77373e-18)
(-0.319828 0.24513 0)
(-0.426394 0.303715 -3.22012e-18)
(-0.549258 0.364218 2.96577e-18)
(-0.687814 0.427072 2.72773e-18)
(-0.840136 0.490268 0)
(-1.00304 0.550655 0)
(-1.1727 0.605112 2.11201e-18)
(-1.34517 0.650761 -1.9422e-18)
(-1.51707 0.685484 0)
(-1.68615 0.708329 -3.31603e-18)
(-1.85134 0.719616 0)
(-2.01248 0.720697 0)
(-2.17004 0.713552 -1.34763e-18)
(-2.32468 0.700293 -1.26773e-18)
(-2.47714 0.682959 -1.19634e-18)
(-2.62809 0.663384 6.65925e-22)
(-2.778 0.642923 0)
(-2.9272 0.622534 0)
(-3.07589 0.602827 -9.81936e-19)
(-3.22417 0.584123 -9.40337e-19)
(-3.37205 0.566528 -9.02379e-19)
(-3.51951 0.550004 0)
(-3.66647 0.534415 -2.50367e-18)
(-3.8128 0.519568 0)
(-3.95837 0.505246 0)
(-4.10299 0.491226 0)
(-4.24645 0.477288 0)
(-4.38848 0.46323 2.10261e-18)
(-4.52878 0.44887 0)
(-4.66702 0.434053 6.57591e-19)
(-4.80281 0.418647 -1.27305e-18)
(-4.93574 0.40255 -1.85156e-18)
(-5.06536 0.385687 -1.19753e-18)
(-5.19118 0.368007 0)
(-5.31269 0.349484 0)
(-5.42937 0.330117 -1.09137e-18)
(-5.54069 0.309921 0)
(-5.64608 0.288931 2.04892e-18)
(-5.74502 0.267194 0)
(-5.83696 0.24477 -5.44531e-22)
(-5.92137 0.22173 0)
(-5.99774 0.198149 -2.91421e-22)
(-6.06557 0.17411 -1.73225e-18)
(-6.12441 0.149701 0)
(-6.17385 0.125014 0)
(-6.2135 0.100155 7.72606e-19)
(-6.24305 0.0752431 -7.41284e-19)
(-6.26225 0.0504259 0)
(-6.2708 0.0258888 6.78272e-19)
(-6.26831 0.00177057 0)
(-6.25429 -0.0219936 6.11806e-19)
(-6.22827 -0.0454831 0)
(-6.19004 -0.0686201 0)
(-6.1394 -0.0913051 0)
(-6.07619 -0.113455 0)
(-6.00032 -0.134988 -8.9114e-19)
(-5.91176 -0.155831 0)
(-5.8105 -0.175913 -7.52973e-19)
(-5.6966 -0.195172 0)
(-5.57014 -0.213549 4.16238e-21)
(-5.43127 -0.230992 5.50701e-19)
(-5.28018 -0.247453 0)
(-5.11709 -0.262891 -4.21313e-19)
(-4.94227 -0.277265 0)
(-4.75603 -0.290536 -2.88628e-19)
(-4.55877 -0.302671 -2.17637e-19)
(-4.35084 -0.313679 -1.52182e-19)
(-4.13275 -0.323563 -8.72605e-20)
(-3.90505 -0.332282 2.8596e-20)
(-3.66806 -0.339947 0)
(-3.42234 -0.346625 0)
(-3.1684 -0.352201 0)
(-2.90679 -0.356598 -2.26625e-19)
(-2.63816 -0.359856 2.75085e-19)
(-2.36315 -0.362029 0)
(-2.08242 -0.36317 4.04618e-19)
(-1.79661 -0.363338 0)
(-1.50634 -0.362601 0)
(-1.21223 -0.361044 -1.13443e-18)
(-0.914828 -0.358764 0)
(-0.614646 -0.355877 -6.79721e-19)
(-0.312101 -0.352506 0)
(-0.00752977 -0.348781 -1.5462e-18)
(0.298843 -0.344831 -1.62951e-18)
(0.606819 -0.340755 1.70394e-18)
(0.916447 -0.336654 0)
(1.22735 -0.33247 -1.83967e-18)
(1.54053 -0.328274 0)
(1.85364 -0.323228 1.972e-18)
(2.17195 -0.317914 0)
(2.47889 -0.305745 2.07087e-18)
(2.80736 -0.288683 -9.33592e-21)
(3.07074 -0.214379 -2.18123e-18)
(-0.013547 -0.28936 0)
(-0.0433008 -0.16155 0)
(-0.0817199 -0.0481835 0)
(-0.137723 0.0500777 -4.10108e-18)
(-0.201525 0.136217 0)
(-0.275433 0.215248 1.88076e-21)
(-0.361086 0.290668 2.98811e-18)
(-0.459811 0.364751 0)
(-0.571854 0.438765 5.13946e-18)
(-0.696276 0.513105 -2.37795e-18)
(-0.831031 0.586727 -2.19655e-18)
(-0.973148 0.656869 0)
(-1.11933 0.720153 0)
(-1.26646 0.773635 -1.73002e-18)
(-1.41204 0.815256 -1.6034e-18)
(-1.55447 0.844101 0)
(-1.69316 0.860423 1.38597e-18)
(-1.82829 0.86545 0)
(-1.96054 0.861045 0)
(-2.09078 0.849346 1.1437e-18)
(-2.21988 0.832457 2.16139e-18)
(-2.34854 0.812294 2.04881e-18)
(-2.4773 0.790405 9.7421e-19)
(-2.60645 0.767954 0)
(-2.73616 0.745752 0)
(-2.86646 0.724302 0)
(-2.99731 0.703852 8.10733e-19)
(-3.1286 0.684463 0)
(-3.2602 0.666067 0)
(-3.39194 0.648506 1.44158e-18)
(-3.52364 0.631576 0)
(-3.65509 0.615048 -1.34135e-18)
(-3.78603 0.598681 0)
(-3.91622 0.582235 0)
(-4.04537 0.565491 -1.21221e-18)
(-4.17313 0.548248 0)
(-4.29916 0.530334 1.13642e-18)
(-4.42307 0.511603 2.59337e-22)
(-4.54442 0.491939 2.13486e-18)
(-4.66275 0.471259 1.03472e-18)
(-4.77759 0.449507 1.00321e-18)
(-4.88843 0.426659 0)
(-4.99474 0.402715 0)
(-5.096 0.377702 -9.13867e-19)
(-5.19167 0.351664 -1.77075e-18)
(-5.28121 0.324667 1.71475e-18)
(-5.36409 0.29679 -2.48904e-18)
(-5.43982 0.268124 -1.60472e-18)
(-5.50788 0.23877 7.7547e-19)
(-5.5678 0.208837 7.47795e-19)
(-5.61914 0.178443 0)
(-5.66148 0.147712 0)
(-5.69445 0.116778 0)
(-5.7177 0.0857849 0)
(-5.7309 0.0548878 0)
(-5.7337 0.0242498 0)
(-5.72568 -0.00602539 0)
(-5.70645 -0.0359616 -1.05451e-18)
(-5.67571 -0.0655654 0)
(-5.63326 -0.0947308 0)
(-5.57892 -0.123335 8.80062e-19)
(-5.51256 -0.151269 8.21878e-19)
(-5.43409 -0.178429 1.52501e-18)
(-5.34348 -0.204719 0)
(-5.24071 -0.230052 0)
(-5.12585 -0.254346 0)
(-4.99897 -0.277529 -1.06065e-18)
(-4.86022 -0.299535 -4.74157e-19)
(-4.70978 -0.320304 0)
(-4.54785 -0.339784 -3.11499e-21)
(-4.3747 -0.357926 0)
(-4.19063 -0.374682 -2.50212e-19)
(-3.99598 -0.390009 -3.82417e-19)
(-3.7911 -0.4039 0)
(-3.57653 -0.41635 -1.62773e-19)
(-3.35271 -0.427346 3.10269e-20)
(-3.11999 -0.436999 0)
(-2.87895 -0.445381 0)
(-2.63004 -0.452372 2.594e-19)
(-2.3738 -0.45788 0)
(-2.11086 -0.461949 -9.28513e-19)
(-1.84181 -0.464641 0)
(-1.56728 -0.466025 0)
(-1.28789 -0.466173 0)
(-1.00425 -0.465173 0)
(-0.716919 -0.463131 9.3669e-19)
(-0.426447 -0.460175 -1.01665e-18)
(-0.133308 -0.456451 0)
(0.162106 -0.45212 1.17818e-18)
(0.459473 -0.447349 7.06573e-21)
(0.758582 -0.442296 1.31863e-18)
(1.05926 -0.437087 -1.37992e-18)
(1.36159 -0.431845 0)
(1.66528 -0.426557 1.49203e-18)
(1.97125 -0.421224 0)
(2.27752 -0.415043 -3.17081e-18)
(2.5889 -0.408066 0)
(2.89101 -0.394251 -5.0272e-18)
(3.21453 -0.373881 -1.72611e-18)
(3.48562 -0.301673 1.76191e-18)
(-0.0373091 -0.253424 0)
(-0.0901524 -0.0928434 -6.81491e-18)
(-0.14426 0.0272536 0)
(-0.213679 0.131035 3.45942e-18)
(-0.288156 0.225397 0)
(-0.369976 0.314898 2.72368e-18)
(-0.460794 0.401958 -2.51473e-18)
(-0.56143 0.487665 0)
(-0.67143 0.572079 -2.17527e-18)
(-0.789204 0.654315 2.01984e-18)
(-0.91231 0.732413 0)
(-1.03795 0.803526 0)
(-1.16355 0.864777 1.61364e-18)
(-1.28712 0.914006 1.49989e-18)
(-1.40747 0.950118 -1.39831e-18)
(-1.52422 0.973142 0)
(-1.63768 0.984067 0)
(-1.74857 0.98455 0)
(-1.85781 0.976598 -2.15939e-18)
(-1.96631 0.962283 2.03939e-18)
(-2.07484 0.943543 -9.64322e-19)
(-2.184 0.922057 -1.83148e-18)
(-2.29417 0.899165 2.24718e-21)
(-2.40555 0.875863 1.66532e-18)
(-2.51818 0.852842 1.59187e-18)
(-2.63204 0.830521 0)
(-2.74701 0.809099 -1.46243e-18)
(-2.86292 0.78861 -1.40509e-18)
(-2.97959 0.768967 0)
(-3.0968 0.750004 0)
(-3.21432 0.731509 0)
(-3.33189 0.713241 1.21247e-18)
(-3.44926 0.694948 0)
(-3.56611 0.676383 0)
(-3.68215 0.657313 0)
(-3.79703 0.637527 0)
(-3.91038 0.616838 3.30395e-22)
(-4.0218 0.595089 9.97899e-19)
(-4.13085 0.572157 3.38119e-22)
(-4.23709 0.54795 -9.38339e-19)
(-4.34002 0.522414 -9.10063e-19)
(-4.43915 0.495525 -1.76601e-18)
(-4.53398 0.467292 -1.71257e-18)
(-4.62399 0.437749 8.29706e-19)
(-4.70866 0.406957 8.04035e-19)
(-4.78747 0.374997 -1.55751e-18)
(-4.85994 0.341968 -1.06558e-21)
(-4.92555 0.307984 2.91716e-18)
(-4.98386 0.27317 -1.40879e-18)
(-5.03439 0.23766 0)
(-5.07674 0.201597 0)
(-5.11049 0.165133 -1.26297e-18)
(-5.13528 0.128423 -1.21382e-18)
(-5.15076 0.0916281 0)
(-5.15658 0.0549099 0)
(-5.15239 0.0184206 0)
(-5.13782 -0.0177385 0)
(-5.11253 -0.0535386 -1.66262e-21)
(-5.07631 -0.0889308 0)
(-5.02896 -0.123792 -8.51245e-19)
(-4.97033 -0.157981 -7.96265e-19)
(-4.90031 -0.191368 -1.48803e-18)
(-4.8188 -0.22383 -1.38185e-18)
(-4.72579 -0.255251 6.38904e-19)
(-4.62126 -0.285526 1.17212e-18)
(-4.50527 -0.314558 0)
(-4.3779 -0.342259 -4.83018e-19)
(-4.23928 -0.36855 -4.30868e-19)
(-4.08959 -0.39336 -7.53696e-19)
(-3.92903 -0.416628 3.23109e-19)
(-3.75784 -0.4383 0)
(-3.57631 -0.458318 4.42637e-19)
(-3.38474 -0.476628 6.8945e-19)
(-3.18348 -0.493206 0)
(-2.97306 -0.508045 2.95685e-19)
(-2.75381 -0.521153 4.88649e-21)
(-2.52618 -0.532636 4.08308e-20)
(-2.29066 -0.542578 0)
(-2.0477 -0.550851 -2.30723e-19)
(-1.79782 -0.557355 0)
(-1.5416 -0.562137 4.08703e-19)
(-1.2796 -0.565268 0)
(-1.01242 -0.566825 0)
(-0.740639 -0.566899 0)
(-0.464829 -0.565593 0)
(-0.185535 -0.563038 8.1446e-19)
(0.0967395 -0.559388 1.77979e-18)
(0.381548 -0.554822 0)
(0.668516 -0.549532 -1.02178e-18)
(0.957353 -0.543719 3.23472e-18)
(1.24788 -0.53757 0)
(1.53996 -0.531248 0)
(1.8337 -0.524896 -2.47516e-18)
(2.12889 -0.51854 0)
(2.42644 -0.512144 2.65998e-18)
(2.72458 -0.50494 8.90057e-21)
(3.02796 -0.496573 0)
(3.32374 -0.481559 8.96468e-21)
(3.6417 -0.459244 0)
(3.91462 -0.390809 -3.01957e-18)
(-0.0844354 -0.160855 0)
(-0.124687 -0.000599407 6.49055e-18)
(-0.189857 0.118662 0)
(-0.268272 0.224205 3.01947e-18)
(-0.349545 0.323231 2.62039e-18)
(-0.435316 0.419519 0)
(-0.526842 0.514174 2.20103e-18)
(-0.624485 0.60697 0)
(-0.727437 0.696824 1.91234e-18)
(-0.834018 0.781982 1.78275e-18)
(-0.942079 0.860132 3.32165e-18)
(-1.0495 0.928742 0)
(-1.15462 0.985657 1.44392e-18)
(-1.25644 1.02957 -1.34615e-18)
(-1.35469 1.06021 2.51822e-18)
(-1.44966 1.07822 0)
(-1.54207 1.08498 2.22157e-18)
(-1.63281 1.0823 0)
(-1.7228 1.07213 1.97461e-18)
(-1.81287 1.0564 2.80394e-21)
(-1.90368 1.03685 0)
(-1.9957 1.01494 1.69169e-18)
(-2.08921 0.991842 2.20274e-21)
(-2.18434 0.968404 1.98745e-21)
(-2.28112 0.945208 -2.94829e-18)
(-2.37945 0.922605 0)
(-2.47919 0.900752 1.35664e-18)
(-2.58016 0.879655 1.30473e-18)
(-2.68212 0.859213 0)
(-2.78483 0.839252 0)
(-2.88804 0.819556 0)
(-2.99146 0.79988 0)
(-3.09481 0.779967 0)
(-3.19777 0.759565 0)
(-3.30001 0.738433 0)
(-3.40119 0.716353 0)
(-3.50092 0.693127 -9.62448e-19)
(-3.5988 0.668592 0)
(-3.69441 0.642618 -2.71848e-18)
(-3.7873 0.615112 1.75914e-18)
(-3.87699 0.586019 0)
(-3.96301 0.555322 3.31192e-18)
(-4.04488 0.523038 3.21336e-18)
(-4.12209 0.489214 0)
(-4.19418 0.453927 0)
(-4.26064 0.417276 1.46489e-18)
(-4.32103 0.379379 1.417e-18)
(-4.37488 0.340373 -1.37095e-18)
(-4.42175 0.300405 0)
(-4.46124 0.259633 0)
(-4.49295 0.218224 0)
(-4.5165 0.176349 1.18751e-18)
(-4.53155 0.134185 -1.54834e-21)
(-4.53776 0.0919071 0)
(-4.5348 0.0496845 -1.04978e-18)
(-4.52236 0.0076724 0)
(-4.50011 -0.0340155 0)
(-4.46777 -0.0753057 8.98713e-19)
(-4.42515 -0.116109 0)
(-4.37209 -0.156285 -8.01142e-19)
(-4.30845 -0.195679 0)
(-4.23414 -0.234144 6.97618e-19)
(-4.14908 -0.271536 -6.50629e-19)
(-4.05324 -0.307725 6.00685e-19)
(-3.94662 -0.342589 -1.09556e-18)
(-3.82928 -0.376015 9.99564e-19)
(-3.7013 -0.407901 8.97768e-19)
(-3.56279 -0.438156 7.99745e-19)
(-3.41393 -0.466699 1.40813e-18)
(-3.2549 -0.493462 6.09235e-19)
(-3.08594 -0.518383 0)
(-2.90732 -0.5414 4.19198e-19)
(-2.71931 -0.56245 -3.22415e-19)
(-2.52224 -0.581488 2.33617e-19)
(-2.31657 -0.598511 -1.39352e-19)
(-2.10262 -0.61353 -1.03623e-19)
(-1.88087 -0.626657 -3.77971e-20)
(-1.65175 -0.637991 0)
(-1.41567 -0.64739 2.0488e-19)
(-1.17314 -0.654752 2.87596e-19)
(-0.924698 -0.660128 0)
(-0.670864 -0.663595 4.47475e-19)
(-0.412186 -0.665243 -5.24522e-19)
(-0.14921 -0.665172 0)
(0.117532 -0.663508 0)
(0.387532 -0.660401 -7.39869e-19)
(0.66032 -0.656031 -2.40019e-18)
(0.935483 -0.650605 -1.71726e-18)
(1.21268 -0.644348 0)
(1.49167 -0.637494 -1.94665e-18)
(1.77229 -0.630266 0)
(2.05446 -0.622861 0)
(2.33832 -0.615447 6.97733e-21)
(2.62374 -0.608082 0)
(2.91162 -0.600713 -2.4045e-18)
(3.2004 -0.592612 2.47963e-18)
(3.49469 -0.583131 0)
(3.78277 -0.567344 2.61409e-18)
(4.09419 -0.544051 0)
(4.36482 -0.480249 2.71823e-18)
(-0.0979316 -0.0527419 2.2717e-17)
(-0.147202 0.102237 0)
(-0.218959 0.219733 -3.48229e-18)
(-0.30234 0.324419 -2.71189e-18)
(-0.38682 0.424996 -2.35209e-18)
(-0.472876 0.524389 0)
(-0.561492 0.622534 0)
(-0.652732 0.718116 -3.69552e-18)
(-0.745741 0.809206 1.72861e-18)
(-0.839119 0.89357 -3.23336e-18)
(-0.931293 0.968906 1.1461e-21)
(-1.0209 1.03315 2.82925e-18)
(-1.1071 1.08486 -2.64679e-18)
(-1.1896 1.12342 -2.48327e-18)
(-1.26867 1.14913 0)
(-1.34494 1.16303 0)
(-1.41927 1.16664 -2.06675e-18)
(-1.49256 1.16178 0)
(-1.56567 1.1503 0)
(-1.63933 1.13393 2.5212e-21)
(-1.71408 1.11423 0)
(-1.79031 1.09247 -1.59315e-18)
(-1.86824 1.06966 2.04945e-21)
(-1.94797 1.04652 -2.91356e-18)
(-2.02948 1.02356 -1.73231e-21)
(-2.11267 1.00105 -1.34107e-18)
(-2.19738 0.979122 0)
(-2.28341 0.95774 0)
(-2.3705 0.936792 0)
(-2.4584 0.916098 2.30876e-18)
(-2.54682 0.895443 0)
(-2.63546 0.874579 0)
(-2.72403 0.853248 0)
(-2.81219 0.831195 0)
(-2.8996 0.808176 0)
(-2.98592 0.783968 0)
(-3.07076 0.75837 -1.84503e-18)
(-3.15373 0.731212 0)
(-3.23441 0.702362 1.73719e-18)
(-3.31237 0.671728 -1.687e-18)
(-3.38717 0.639261 0)
(-3.45836 0.604952 1.89065e-21)
(-3.52548 0.568828 -3.09094e-18)
(-3.58807 0.530952 -1.50087e-18)
(-3.64571 0.491418 0)
(-3.69795 0.450344 -1.40972e-18)
(-3.74437 0.407868 1.36747e-18)
(-3.78458 0.364148 1.32356e-18)
(-3.81817 0.319352 0)
(-3.8448 0.27366 1.23584e-18)
(-3.86409 0.227258 0)
(-3.87574 0.180338 1.14762e-18)
(-3.87941 0.133092 1.10156e-18)