/*--------------------------------*- C++ -*----------------------------------*\
| =========                 |                                                 |
| \\      /  F ield         | OpenFOAM: The Open Source CFD Toolbox           |
|  \\    /   O peration     | Version:  5.x                                   |
|   \\  /    A nd           | Web:      www.OpenFOAM.org                      |
|    \\/     M anipulation  |                                                 |
\*---------------------------------------------------------------------------*/
FoamFile
{
    version     2.0;
    format      ascii;
    class       surfaceScalarField;
    location    "284";
    object      phi;
}
// * * * * * * * * * * * * * * * * * * * * * * * * * * * * * * * * * * * * * //

dimensions      [0 3 -1 0 0 0 0];

internalField   nonuniform List<scalar> 
11337
(
8.72519e-06
2.8061e-08
8.66667e-06
5.85207e-08
8.60366e-06
6.30043e-08
8.54067e-06
6.29947e-08
8.47704e-06
6.36292e-08
8.41626e-06
6.07718e-08
8.36052e-06
5.57407e-08
8.31014e-06
5.0377e-08
8.2647e-06
4.54426e-08
8.22376e-06
4.09365e-08
8.18684e-06
3.69154e-08
8.15356e-06
3.32786e-08
8.12346e-06
3.01048e-08
8.09613e-06
2.73255e-08
8.07129e-06
2.48439e-08
8.04813e-06
2.31526e-08
8.02567e-06
2.24668e-08
2.24434e-08
8.00322e-06
9.7028e-06
-1.03641e-08
9.71511e-06
4.62103e-08
9.72398e-06
5.41335e-08
9.72907e-06
5.78996e-08
9.73176e-06
6.09393e-08
9.73197e-06
6.05595e-08
9.72965e-06
5.80606e-08
9.7249e-06
5.51265e-08
9.71817e-06
5.2166e-08
9.70985e-06
4.92558e-08
9.70042e-06
4.6352e-08
9.6901e-06
4.35948e-08
9.67928e-06
4.09184e-08
9.66815e-06
3.84585e-08
9.65695e-06
3.60455e-08
9.64595e-06
3.41469e-08
9.63663e-06
3.17916e-08
3.08124e-08
9.62825e-06
1.06657e-05
-5.68998e-09
1.06736e-05
3.82796e-08
1.0682e-05
4.57179e-08
1.06913e-05
4.86217e-08
1.07003e-05
5.18921e-08
1.07079e-05
5.29941e-08
1.07137e-05
5.22224e-08
1.07181e-05
5.07753e-08
1.07212e-05
4.90669e-08
1.07232e-05
4.719e-08
1.07244e-05
4.51647e-08
1.07249e-05
4.31196e-08
1.07248e-05
4.10498e-08
1.07242e-05
3.90484e-08
1.07232e-05
3.70386e-08
1.07222e-05
3.51751e-08
1.0721e-05
3.29909e-08
3.12439e-08
1.07205e-05
1.17733e-05
1.98977e-09
1.1782e-05
2.95846e-08
1.17885e-05
3.92669e-08
1.17944e-05
4.27357e-08
1.18002e-05
4.6008e-08
1.18055e-05
4.7715e-08
1.18101e-05
4.76279e-08
1.18142e-05
4.66589e-08
1.18179e-05
4.53392e-08
1.18213e-05
4.38224e-08
1.18243e-05
4.21571e-08
1.1827e-05
4.04281e-08
1.18294e-05
3.8659e-08
1.18316e-05
3.68939e-08
1.18335e-05
3.50995e-08
1.18354e-05
3.33155e-08
1.1837e-05
3.13703e-08
2.9394e-08
1.18388e-05
1.30043e-05
4.95119e-09
1.30106e-05
2.33325e-08
1.30151e-05
3.47183e-08
1.30188e-05
3.90516e-08
1.3023e-05
4.18528e-08
1.30272e-05
4.34555e-08
1.30313e-05
4.35823e-08
1.30351e-05
4.2829e-08
1.30387e-05
4.17135e-08
1.30421e-05
4.04074e-08
1.30453e-05
3.89584e-08
1.30483e-05
3.74203e-08
1.30512e-05
3.58274e-08
1.30538e-05
3.42056e-08
1.30564e-05
3.25449e-08
1.30589e-05
3.08515e-08
1.30612e-05
2.90484e-08
2.71427e-08
1.30634e-05
1.43607e-05
5.48841e-09
1.43645e-05
1.95156e-08
1.43688e-05
3.04226e-08
1.43726e-05
3.52132e-08
1.43767e-05
3.77322e-08
1.43809e-05
3.9267e-08
1.43848e-05
3.96601e-08
1.43885e-05
3.92004e-08
1.43919e-05
3.83113e-08
1.43951e-05
3.71904e-08
1.43981e-05
3.59039e-08
1.44011e-05
3.45035e-08
1.44038e-05
3.30311e-08
1.44065e-05
3.15127e-08
1.44091e-05
2.99529e-08
1.44116e-05
2.83532e-08
1.4414e-05
2.66852e-08
2.49734e-08
1.44162e-05
1.58562e-05
5.32509e-09
1.5859e-05
1.67413e-08
1.58633e-05
2.60893e-08
1.58675e-05
3.10148e-08
1.58717e-05
3.35778e-08
1.58758e-05
3.5136e-08
1.58797e-05
3.57458e-08
1.58834e-05
3.55451e-08
1.58868e-05
3.48602e-08
1.58901e-05
3.39043e-08
1.58932e-05
3.27681e-08
1.58962e-05
3.15053e-08
1.58991e-05
3.0159e-08
1.59019e-05
2.8758e-08
1.59045e-05
2.7315e-08
1.5907e-05
2.58382e-08
1.59094e-05
2.43226e-08
2.2801e-08
1.59115e-05
1.7507e-05
4.85287e-09
1.75094e-05
1.42837e-08
1.75135e-05
2.20522e-08
1.75177e-05
2.6828e-08
1.75218e-05
2.94623e-08
1.75259e-05
3.09996e-08
1.75299e-05
3.16994e-08
1.75338e-05
3.16838e-08
1.75375e-05
3.1187e-08
1.7541e-05
3.04033e-08
1.75443e-05
2.94315e-08
1.75475e-05
2.83266e-08
1.75505e-05
2.71299e-08
1.75534e-05
2.5872e-08
1.75562e-05
2.45733e-08
1.75587e-05
2.32482e-08
1.75612e-05
2.19051e-08
2.05817e-08
1.75634e-05
1.80747e-05
4.24366e-09
1.80768e-05
1.21309e-08
1.80802e-05
1.86245e-08
1.80841e-05
2.30084e-08
1.80879e-05
2.55783e-08
1.80919e-05
2.70562e-08
1.80958e-05
2.77849e-08
1.80996e-05
2.78996e-08
1.81032e-05
2.75659e-08
1.81067e-05
2.6941e-08
1.811e-05
2.61231e-08
1.81131e-05
2.51688e-08
1.81161e-05
2.41195e-08
1.8119e-05
2.30078e-08
1.81217e-05
2.18576e-08
1.81243e-05
2.06886e-08
1.81267e-05
1.9515e-08
1.83804e-08
1.81289e-05
2.55614e-05
3.37678e-09
2.5564e-05
9.56969e-09
2.5568e-05
1.46601e-08
2.55726e-05
1.83225e-08
2.55776e-05
2.06242e-08
2.55827e-05
2.19799e-08
2.55878e-05
2.26957e-08
2.55927e-05
2.29112e-08
2.55976e-05
2.27381e-08
2.56022e-05
2.22919e-08
2.56067e-05
2.16598e-08
2.5611e-05
2.08983e-08
2.5615e-05
2.00468e-08
2.56189e-05
1.91364e-08
2.56226e-05
1.81906e-08
2.5626e-05
1.72289e-08
2.56293e-05
1.62614e-08
1.53214e-08
2.56323e-05
3.61492e-05
2.30902e-09
3.61521e-05
6.60592e-09
3.61566e-05
1.01317e-08
3.61622e-05
1.27639e-08
3.61683e-05
1.45298e-08
3.61747e-05
1.56206e-08
3.61811e-05
1.62202e-08
3.61876e-05
1.64407e-08
3.6194e-05
1.63652e-08
3.62002e-05
1.60737e-08
3.62062e-05
1.56335e-08
3.6212e-05
1.50917e-08
3.62176e-05
1.44821e-08
3.62229e-05
1.38311e-08
3.62279e-05
1.31606e-08
3.62327e-05
1.24897e-08
3.62371e-05
1.18297e-08
1.12134e-08
3.62412e-05
5.11223e-05
1.09287e-09
5.11257e-05
3.21728e-09
5.11309e-05
4.9388e-09
5.11375e-05
6.22012e-09
5.11449e-05
7.13215e-09
5.11527e-05
7.77718e-09
5.11607e-05
8.21048e-09
5.11687e-05
8.45172e-09
5.11765e-05
8.51592e-09
5.11842e-05
8.42786e-09
5.11916e-05
8.21775e-09
5.11988e-05
7.91464e-09
5.12057e-05
7.54314e-09
5.12124e-05
7.12396e-09
5.12189e-05
6.67403e-09
5.12252e-05
6.20872e-09
5.12313e-05
5.73606e-09
5.29487e-09
5.12372e-05
7.22976e-05
-3.09736e-10
7.23016e-05
-7.89088e-10
7.23078e-05
-1.30288e-09
7.2316e-05
-1.91847e-09
7.23257e-05
-2.56842e-09
7.23366e-05
-3.1737e-09
7.23485e-05
-3.63828e-09
7.23608e-05
-3.88395e-09
7.23732e-05
-3.91312e-09
7.23854e-05
-3.79013e-09
7.23972e-05
-3.58458e-09
7.24085e-05
-3.34319e-09
7.24191e-05
-3.09208e-09
7.24291e-05
-2.84563e-09
7.24384e-05
-2.61168e-09
7.2447e-05
-2.39275e-09
7.24549e-05
-2.19393e-09
-2.00451e-09
7.24622e-05
5.22979e-05
-1.11596e-09
5.23006e-05
-3.43806e-09
5.23055e-05
-6.2343e-09
5.23116e-05
-7.98773e-09
5.23175e-05
-8.51457e-09
5.2323e-05
-8.6795e-09
5.23283e-05
-8.94681e-09
5.23337e-05
-9.28136e-09
5.23394e-05
-9.56607e-09
5.23453e-05
-9.75756e-09
5.23516e-05
-9.85538e-09
5.23581e-05
-9.87004e-09
5.23649e-05
-9.8176e-09
5.23717e-05
-9.71793e-09
5.23787e-05
-9.59111e-09
5.23858e-05
-9.45463e-09
5.23929e-05
-9.32435e-09
-9.19379e-09
5.24001e-05
4.15087e-05
-1.58707e-09
4.15092e-05
-3.96321e-09
4.1513e-05
-1.0004e-08
4.15198e-05
-1.47346e-08
4.15284e-05
-1.71408e-08
4.15378e-05
-1.80896e-08
4.1547e-05
-1.8168e-08
4.15555e-05
-1.77426e-08
4.1563e-05
-1.7122e-08
4.15698e-05
-1.6485e-08
4.15758e-05
-1.58831e-08
4.15812e-05
-1.53162e-08
4.15862e-05
-1.47771e-08
4.15907e-05
-1.4259e-08
4.15949e-05
-1.37517e-08
4.15987e-05
-1.32413e-08
4.16021e-05
-1.27127e-08
-1.21615e-08
4.1605e-05
3.29444e-05
-8.66303e-10
3.29478e-05
-7.40102e-09
3.29506e-05
-1.28039e-08
3.29513e-05
-1.5426e-08
3.29524e-05
-1.82548e-08
3.29553e-05
-2.09977e-08
3.29598e-05
-2.26675e-08
3.29654e-05
-2.32487e-08
3.29714e-05
-2.31679e-08
3.29776e-05
-2.2737e-08
3.29839e-05
-2.211e-08
3.29899e-05
-2.13773e-08
3.29958e-05
-2.06031e-08
3.30013e-05
-1.98271e-08
3.30067e-05
-1.90735e-08
3.30118e-05
-1.83553e-08
3.30168e-05
-1.76964e-08
-1.70799e-08
3.30217e-05
2.61328e-05
1.48815e-08
2.6143e-05
-1.75725e-08
2.61555e-05
-2.53379e-08
2.61647e-05
-2.45765e-08
2.61711e-05
-2.47006e-08
2.61756e-05
-2.54634e-08
2.61787e-05
-2.58068e-08
2.61813e-05
-2.5799e-08
2.61837e-05
-2.56442e-08
2.61864e-05
-2.53469e-08
2.61891e-05
-2.48853e-08
2.6192e-05
-2.42963e-08
2.61951e-05
-2.36297e-08
2.61982e-05
-2.29187e-08
2.62013e-05
-2.21798e-08
2.62043e-05
-2.1399e-08
2.62072e-05
-2.05847e-08
-1.96397e-08
2.62098e-05
2.07261e-05
4.29428e-08
2.07205e-05
-1.20368e-08
2.07238e-05
-2.8573e-08
2.07336e-05
-3.44305e-08
2.07468e-05
-3.78625e-08
2.07601e-05
-3.87654e-08
2.0772e-05
-3.76881e-08
2.07822e-05
-3.59936e-08
2.07909e-05
-3.43434e-08
2.07983e-05
-3.27825e-08
2.08047e-05
-3.12546e-08
2.08101e-05
-2.97753e-08
2.08149e-05
-2.8366e-08
2.0819e-05
-2.70463e-08
2.08226e-05
-2.58233e-08
2.08259e-05
-2.46811e-08
2.08289e-05
-2.35987e-08
-2.22005e-08
2.08315e-05
1.65064e-05
9.1078e-09
1.65092e-05
-1.48555e-08
1.6515e-05
-3.43153e-08
1.65216e-05
-4.10678e-08
1.65295e-05
-4.57578e-08
1.65375e-05
-4.67654e-08
1.65444e-05
-4.45528e-08
1.65495e-05
-4.11271e-08
1.65528e-05
-3.76522e-08
1.65544e-05
-3.44366e-08
1.65547e-05
-3.1508e-08
1.65538e-05
-2.88789e-08
1.6552e-05
-2.65557e-08
1.65495e-05
-2.45554e-08
1.65466e-05
-2.29057e-08
1.65437e-05
-2.1809e-08
1.65415e-05
-2.14261e-08
-2.30986e-08
1.65424e-05
1.30834e-05
1.30685e-05
1.30342e-05
1.29931e-05
1.29474e-05
1.29006e-05
1.28561e-05
1.28149e-05
1.27773e-05
1.27429e-05
1.27113e-05
1.26825e-05
1.26559e-05
1.26314e-05
1.26085e-05
1.25866e-05
1.25652e-05
1.25421e-05
5.54323e-08
-5.53837e-08
1.11351e-07
-5.58611e-08
1.49563e-07
-3.81689e-08
1.67981e-07
-1.83673e-08
1.68097e-07
-8.51544e-11
1.54162e-07
1.39807e-08
1.31799e-07
2.23896e-08
1.05822e-07
2.60883e-08
7.9407e-08
2.64835e-08
4.05622e-08
3.90256e-08
-8.2741e-09
4.88537e-08
-5.97548e-08
5.15799e-08
-1.19965e-07
6.01e-08
-2.07819e-07
8.77402e-08
-3.23792e-07
1.15816e-07
-4.5647e-07
1.32525e-07
-6.07227e-07
1.50645e-07
-7.72778e-07
1.65473e-07
-9.50102e-07
1.77268e-07
-1.13576e-06
1.85613e-07
-1.32639e-06
1.90596e-07
-1.51912e-06
1.9269e-07
-1.71167e-06
1.92524e-07
-1.90245e-06
1.90747e-07
-2.09042e-06
1.87943e-07
-2.27504e-06
1.84582e-07
-2.45607e-06
1.81008e-07
-2.63355e-06
1.77446e-07
-2.8076e-06
1.74025e-07
-2.97842e-06
1.70797e-07
-3.14621e-06
1.67758e-07
-3.3111e-06
1.64866e-07
-3.47318e-06
1.6206e-07
-3.63247e-06
1.59261e-07
-3.78888e-06
1.56393e-07
-3.94227e-06
1.53375e-07
-4.09242e-06
1.50135e-07
-4.23903e-06
1.46603e-07
-4.38177e-06
1.42723e-07
-4.52023e-06
1.38445e-07
-4.65398e-06
1.33733e-07
-4.78255e-06
1.28557e-07
-4.90546e-06
1.229e-07
-5.02221e-06
1.16748e-07
-5.13231e-06
1.101e-07
-5.23526e-06
1.02953e-07
-5.33057e-06
9.53177e-08
-5.41775e-06
8.71999e-08
-5.49634e-06
7.86118e-08
-5.56587e-06
6.95536e-08
-5.62587e-06
6.00207e-08
-5.67582e-06
4.99837e-08
-5.71516e-06
3.93751e-08
-5.74317e-06
2.80416e-08
-5.75892e-06
1.57907e-08
-5.76174e-06
2.85743e-09
-5.7525e-06
-9.20105e-09
-5.73256e-06
-1.99052e-08
-5.7022e-06
-3.03245e-08
-5.66141e-06
-4.07569e-08
-5.61016e-06
-5.12149e-08
-5.54846e-06
-6.16649e-08
-5.47637e-06
-7.20691e-08
-5.39396e-06
-8.23819e-08
-5.30137e-06
-9.25648e-08
-5.19879e-06
-1.02571e-07
-5.08642e-06
-1.12361e-07
-4.96455e-06
-1.21884e-07
-4.83347e-06
-1.31097e-07
-4.69356e-06
-1.39946e-07
-4.54523e-06
-1.48382e-07
-4.38894e-06
-1.56349e-07
-4.22515e-06
-1.63851e-07
-4.05429e-06
-1.70907e-07
-3.87696e-06
-1.77365e-07
-3.69369e-06
-1.83298e-07
-3.50487e-06
-1.88848e-07
-3.31101e-06
-1.93865e-07
-3.11274e-06
-1.9828e-07
-2.9106e-06
-2.02132e-07
-2.70514e-06
-2.05442e-07
-2.49688e-06
-2.08234e-07
-2.28632e-06
-2.10525e-07
-2.07393e-06
-2.12339e-07
-1.86018e-06
-2.13702e-07
-1.64545e-06
-2.14648e-07
-1.43016e-06
-2.15218e-07
-1.2146e-06
-2.15457e-07
-9.99087e-07
-2.15425e-07
-7.83792e-07
-2.15169e-07
-5.68915e-07
-2.14769e-07
-3.54545e-07
-2.14224e-07
-1.40794e-07
-2.1363e-07
7.18411e-08
-2.12477e-07
2.83679e-07
-2.11716e-07
4.93037e-07
-2.09203e-07
7.03475e-07
-2.10319e-07
9.00828e-07
-1.97208e-07
1.09781e-06
-1.96855e-07
-5.08955e-08
1.14884e-06
5.17721e-08
-1.07114e-07
8.23122e-08
-8.63594e-08
9.56366e-08
-5.14575e-08
9.557e-08
-1.82667e-08
8.41398e-08
1.1373e-08
6.17047e-08
3.64497e-08
2.68581e-08
5.72668e-08
-2.33324e-08
7.63413e-08
-8.97878e-08
9.29988e-08
-1.65028e-07
1.14338e-07
-2.60189e-07
1.44044e-07
-3.81583e-07
1.72984e-07
-5.23644e-07
2.02122e-07
-6.7728e-07
2.41322e-07
-8.4127e-07
2.79736e-07
-1.01869e-06
3.09883e-07
-1.20241e-06
3.34309e-07
-1.39019e-06
3.53218e-07
-1.57857e-06
3.65623e-07
-1.76497e-06
3.71993e-07
-1.94772e-06
3.73332e-07
-2.12582e-06
3.7077e-07
-2.29883e-06
3.65512e-07
-2.46673e-06
3.58628e-07
-2.62976e-06
3.50955e-07
-2.78829e-06
3.43091e-07
-2.94271e-06
3.35417e-07
-3.09342e-06
3.28135e-07
-3.24073e-06
3.21313e-07
-3.38487e-06
3.14924e-07
-3.52602e-06
3.08882e-07
-3.66423e-06
3.03063e-07
-3.79951e-06
2.97324e-07
-3.93179e-06
2.91518e-07
-4.0609e-06
2.85499e-07
-4.18667e-06
2.79132e-07
-4.30884e-06
2.72293e-07
-4.42711e-06
2.64873e-07
-4.54118e-06
2.56781e-07
-4.65069e-06
2.47939e-07
-4.75526e-06
2.38294e-07
-4.85452e-06
2.27802e-07
-4.94806e-06
2.16439e-07
-5.03551e-06
2.04187e-07
-5.11645e-06
1.91047e-07
-5.19052e-06
1.77024e-07
-5.25733e-06
1.62134e-07
-5.31652e-06
1.46398e-07
-5.36773e-06
1.29842e-07
-5.41065e-06
1.1249e-07
-5.44498e-06
9.43659e-08
-5.47047e-06
7.54941e-08
-5.48697e-06
5.59039e-08
-5.49456e-06
3.56572e-08
-5.49371e-06
1.49655e-08
-5.48513e-06
-5.702e-09
-5.46822e-06
-2.60886e-08
-5.44167e-06
-4.64309e-08
-5.40504e-06
-6.6922e-08
-5.35825e-06
-8.75303e-08
-5.30124e-06
-1.08202e-07
-5.23402e-06
-1.2886e-07
-5.15664e-06
-1.49426e-07
-5.0692e-06
-1.69812e-07
-4.97181e-06
-1.89936e-07
-4.86466e-06
-2.09711e-07
-4.74796e-06
-2.29052e-07
-4.62198e-06
-2.47866e-07
-4.48703e-06
-2.66065e-07
-4.34345e-06
-2.83548e-07
-4.19164e-06
-3.00217e-07
-4.03205e-06
-3.15974e-07
-3.86514e-06
-3.30803e-07
-3.69139e-06
-3.44685e-07
-3.51136e-06
-3.57415e-07
-3.32553e-06
-3.69144e-07
-3.13434e-06
-3.80051e-07
-2.9383e-06
-3.89912e-07
-2.73797e-06
-3.98613e-07
-2.53389e-06
-4.06199e-07
-2.3266e-06
-4.12719e-07
-2.1166e-06
-4.18211e-07
-1.90438e-06
-4.22717e-07
-1.6904e-06
-4.26279e-07
-1.4751e-06
-4.28956e-07
-1.25888e-06
-4.3081e-07
-1.04211e-06
-4.31929e-07
-8.2509e-07
-4.32399e-07
-6.08099e-07
-4.32343e-07
-3.91316e-07
-4.31861e-07
-1.749e-07
-4.311e-07
4.10801e-08
-4.30101e-07
2.56565e-07
-4.29023e-07
4.71638e-07
-4.27444e-07
6.86044e-07
-4.26028e-07
8.99858e-07
-4.22909e-07
1.11137e-06
-4.21735e-07
1.31891e-06
-4.04638e-07
1.50876e-06
-3.86617e-07
-2.08083e-07
1.66604e-06
2.66222e-08
-1.33706e-07
3.31212e-08
-9.28283e-08
2.6457e-08
-4.47672e-08
8.40133e-09
-1.82966e-10
-2.07616e-08
4.05602e-08
-6.20423e-08
7.77552e-08
-1.17434e-07
1.12684e-07
-1.88429e-07
1.47366e-07
-2.77927e-07
1.82529e-07
-3.83686e-07
2.20124e-07
-5.03676e-07
2.64045e-07
-6.395e-07
3.08804e-07
-7.9041e-07
3.5301e-07
-9.47409e-07
3.98289e-07
-1.10643e-06
4.38726e-07
-1.26851e-06
4.71926e-07
-1.43053e-06
4.96302e-07
-1.58981e-06
5.12482e-07
-1.74539e-06
5.21184e-07
-1.89692e-06
5.23516e-07
-2.04441e-06
5.2082e-07
-2.1882e-06
5.14541e-07
-2.32868e-06
5.05986e-07
-2.46628e-06
4.96208e-07
-2.60132e-06
4.8599e-07
-2.73411e-06
4.75865e-07
-2.86485e-06
4.66142e-07
-2.99369e-06
4.56959e-07
-3.12071e-06
4.48324e-07
-3.24595e-06
4.40155e-07
-3.3694e-06
4.32314e-07
-3.49098e-06
4.24628e-07
-3.61057e-06
4.16905e-07
-3.72802e-06
4.08955e-07
-3.84312e-06
4.00589e-07
-3.95563e-06
3.91634e-07
-4.06527e-06
3.81928e-07
-4.17173e-06
3.71331e-07
-4.27468e-06
3.59722e-07
-4.37375e-06
3.47004e-07
-4.46857e-06
3.33101e-07
-4.55874e-06
3.1796e-07
-4.64385e-06
3.01547e-07
-4.72351e-06
2.83843e-07
-4.79731e-06
2.64847e-07
-4.86486e-06
2.44572e-07
-4.92576e-06
2.23045e-07
-4.97966e-06
2.00303e-07
-5.0262e-06
1.76393e-07
-5.06507e-06
1.51369e-07
-5.09598e-06
1.25295e-07
-5.11872e-06
9.82525e-08
-5.13315e-06
7.03459e-08
-5.1392e-06
4.17289e-08
-5.13686e-06
1.26473e-08
-5.12592e-06
-1.66284e-08
-5.10588e-06
-4.6111e-08
-5.07633e-06
-7.59625e-08
-5.03707e-06
-1.06157e-07
-4.98801e-06
-1.36573e-07
-4.9291e-06
-1.67096e-07
-4.86034e-06
-1.97607e-07
-4.78177e-06
-2.27982e-07
-4.69348e-06
-2.58094e-07
-4.59559e-06
-2.87819e-07
-4.48827e-06
-3.17026e-07
-4.37173e-06
-3.45589e-07
-4.24623e-06
-3.73374e-07
-4.11205e-06
-4.00249e-07
-3.96955e-06
-4.26074e-07
-3.81909e-06
-4.507e-07
-3.66109e-06
-4.73992e-07
-3.49601e-06
-4.959e-07
-3.32435e-06
-5.1636e-07
-3.14662e-06
-5.35161e-07
-2.96327e-06
-5.52491e-07
-2.77479e-06
-5.6854e-07
-2.58164e-06
-5.83063e-07
-2.38435e-06
-5.95903e-07
-2.18345e-06
-6.07101e-07
-1.97944e-06
-6.16727e-07
-1.77281e-06
-6.24834e-07
-1.56404e-06
-6.31489e-07
-1.35356e-06
-6.36752e-07
-1.1418e-06
-6.40712e-07
-9.29135e-07
-6.43462e-07
-7.15925e-07
-6.45132e-07
-5.02457e-07
-6.45855e-07
-2.88983e-07
-6.4581e-07
-7.56722e-08
-6.45159e-07
1.3734e-07
-6.44105e-07
3.50019e-07
-6.42767e-07
5.62354e-07
-6.41352e-07
7.74511e-07
-6.3959e-07
9.86395e-07
-6.37908e-07
1.19804e-06
-6.34541e-07
1.40763e-06
-6.31321e-07
1.61456e-06
-6.11558e-07
1.80882e-06
-5.80866e-07
-3.97135e-07
1.99789e-06
-2.20761e-09
-1.3148e-07
-1.70932e-08
-7.79221e-08
-4.18145e-08
-2.00253e-08
-7.66612e-08
3.46838e-08
-1.22256e-07
8.61729e-08
-1.79825e-07
1.35343e-07
-2.5075e-07
1.83625e-07
-3.35836e-07
2.32469e-07
-4.3575e-07
2.82458e-07
-5.49597e-07
3.33981e-07
-6.73586e-07
3.88038e-07
-8.06387e-07
4.41599e-07
-9.45886e-07
4.92495e-07
-1.08661e-06
5.38989e-07
-1.22581e-06
5.77903e-07
-1.36236e-06
6.08461e-07
-1.49596e-06
6.29889e-07
-1.62618e-06
6.4269e-07
-1.75309e-06
6.48094e-07
-1.87713e-06
6.47556e-07
-1.99886e-06
6.42541e-07
-2.11879e-06
6.34466e-07
-2.23733e-06
6.24521e-07
-2.35478e-06
6.13643e-07
-2.4713e-06
6.02508e-07
-2.58701e-06
5.9156e-07
-2.70192e-06
5.8104e-07
-2.816e-06
5.71037e-07
-2.92921e-06
5.6152e-07
-3.04145e-06
5.5238e-07
-3.15259e-06
5.4345e-07
-3.2625e-06
5.34527e-07
-3.371e-06
5.25391e-07
-3.47787e-06
5.15818e-07
-3.58288e-06
5.05591e-07
-3.68575e-06
4.94504e-07
-3.7862e-06
4.82367e-07
-3.88388e-06
4.69012e-07
-3.97846e-06
4.54293e-07
-4.06956e-06
4.38095e-07
-4.1568e-06
4.20325e-07
-4.23976e-06
4.00919e-07
-4.31806e-06
3.79834e-07
-4.39127e-06
3.57054e-07
-4.459e-06
3.32577e-07
-4.52085e-06
3.06427e-07
-4.57644e-06
2.78641e-07
-4.62541e-06
2.49276e-07
-4.66741e-06
2.18399e-07
-4.70212e-06
1.86095e-07
-4.72928e-06
1.52462e-07
-4.74863e-06
1.17624e-07
-4.76e-06
8.17232e-08
-4.76319e-06
4.49403e-08
-4.75802e-06
7.48847e-09
-4.74416e-06
-3.04654e-08
-4.72132e-06
-6.89433e-08
-4.68927e-06
-1.07998e-07
-4.64788e-06
-1.47526e-07
-4.59708e-06
-1.87365e-07
-4.53681e-06
-2.27352e-07
-4.46707e-06
-2.67328e-07
-4.38791e-06
-3.07128e-07
-4.29941e-06
-3.46588e-07
-4.20168e-06
-3.85537e-07
-4.09489e-06
-4.23807e-07
-3.97925e-06
-4.61229e-07
-3.85499e-06
-4.97632e-07
-3.72241e-06
-5.32842e-07
-3.58181e-06
-5.66683e-07
-3.43356e-06
-5.98964e-07
-3.27807e-06
-6.29505e-07
-3.11576e-06
-6.58217e-07
-2.94715e-06
-6.84988e-07
-2.77268e-06
-7.09633e-07
-2.59284e-06
-7.32335e-07
-2.40809e-06
-7.53296e-07
-2.21887e-06
-7.72276e-07
-2.0257e-06
-7.89073e-07
-1.82906e-06
-8.03729e-07
-1.62945e-06
-8.16325e-07
-1.42734e-06
-8.26937e-07
-1.22316e-06
-8.35645e-07
-1.01736e-06
-8.42537e-07
-8.10327e-07
-8.47724e-07
-6.02428e-07
-8.51336e-07
-3.93995e-07
-8.53539e-07
-1.85303e-07
-8.54517e-07
2.34193e-08
-8.54502e-07
2.32009e-07
-8.53714e-07
4.40363e-07
-8.52425e-07
6.4847e-07
-8.50838e-07
8.56347e-07
-8.49195e-07
1.06418e-06
-8.47382e-07
1.27195e-06
-8.45652e-07
1.47969e-06
-8.42238e-07
1.68592e-06
-8.37525e-07
1.89044e-06
-8.16043e-07
2.08756e-06
-7.77952e-07
-5.99711e-07
2.29017e-06
-2.67599e-08
-1.04702e-07
-5.9961e-08
-4.47067e-08
-1.00948e-07
2.09748e-08
-1.50606e-07
8.4357e-08
-2.09604e-07
1.45184e-07
-2.7881e-07
2.04562e-07
-3.58923e-07
2.63749e-07
-4.50033e-07
3.23588e-07
-5.51643e-07
3.84076e-07
-6.62331e-07
4.44673e-07
-7.78968e-07
5.04673e-07
-8.99177e-07
5.61802e-07
-1.02052e-06
6.13823e-07
-1.14024e-06
6.58696e-07
-1.25707e-06
6.94722e-07
-1.37032e-06
7.21698e-07
-1.48024e-06
7.39803e-07
-1.58737e-06
7.49825e-07
-1.69235e-06
7.53075e-07
-1.79581e-06
7.5102e-07
-1.89835e-06
7.45075e-07
-2.00039e-06
7.36506e-07
-2.10223e-06
7.26357e-07
-2.20403e-06
7.15433e-07
-2.30584e-06
7.04312e-07
-2.40765e-06
6.93362e-07
-2.50939e-06
6.82773e-07
-2.61096e-06
6.72595e-07
-2.71222e-06
6.62772e-07
-2.81302e-06
6.53173e-07
-2.91319e-06
6.43611e-07
-3.01253e-06
6.33862e-07
-3.11083e-06
6.23687e-07
-3.20786e-06
6.12838e-07
-3.30335e-06
6.01073e-07
-3.39701e-06
5.88161e-07
-3.48853e-06
5.73886e-07
-3.57758e-06
5.58055e-07
-3.6638e-06
5.40506e-07
-3.74682e-06
5.21101e-07
-3.82624e-06
4.99737e-07
-3.90167e-06
4.76341e-07
-3.97271e-06
4.50867e-07
-4.03895e-06
4.23295e-07
-4.10001e-06
3.93632e-07
-4.15549e-06
3.61909e-07
-4.20502e-06
3.28179e-07
-4.24825e-06
2.92513e-07
-4.28485e-06
2.55004e-07
-4.3145e-06
2.15759e-07
-4.33694e-06
1.74908e-07
-4.3519e-06
1.32598e-07
-4.35916e-06
8.8997e-08
-4.35849e-06
4.42902e-08
-4.34966e-06
-1.33108e-09
-4.33238e-06
-4.77302e-08
-4.30643e-06
-9.48808e-08
-4.27166e-06
-1.42753e-07
-4.22797e-06
-1.91201e-07
-4.17529e-06
-2.40033e-07
-4.11358e-06
-2.89052e-07
-4.04284e-06
-3.38058e-07
-3.96311e-06
-3.8685e-07
-3.87446e-06
-4.35223e-07
-3.77702e-06
-4.82971e-07
-3.67095e-06
-5.29883e-07
-3.55642e-06
-5.75751e-07
-3.43369e-06
-6.20367e-07
-3.30303e-06
-6.6352e-07
-3.16473e-06
-7.04997e-07
-3.01913e-06
-7.44573e-07
-2.86662e-06
-7.82027e-07
-2.70763e-06
-8.17215e-07
-2.54263e-06
-8.49998e-07
-2.37206e-06
-8.80207e-07
-2.19639e-06
-9.08004e-07
-2.01607e-06
-9.33619e-07
-1.83153e-06
-9.56815e-07
-1.64325e-06
-9.77354e-07
-1.4517e-06
-9.9528e-07
-1.25734e-06
-1.01069e-06
-1.06061e-06
-1.02366e-06
-8.61952e-07
-1.03431e-06
-6.61755e-07
-1.04274e-06
-4.60403e-07
-1.04908e-06
-2.58238e-07
-1.0535e-06
-5.55691e-08
-1.05621e-06
1.47347e-07
-1.05744e-06
3.503e-07
-1.05746e-06
5.53157e-07
-1.05658e-06
7.55836e-07
-1.05511e-06
9.58344e-07
-1.05335e-06
1.16073e-06
-1.05159e-06
1.36318e-06
-1.04984e-06
1.56573e-06
-1.04822e-06
1.76844e-06
-1.04496e-06
1.97024e-06
-1.03934e-06
2.17133e-06
-1.01715e-06
2.36886e-06
-9.7549e-07
-8.08111e-07
2.57727e-06
-4.48244e-08
-5.98655e-08
-9.31899e-08
3.67096e-09
-1.47867e-07
7.56613e-08
-2.09388e-07
1.45886e-07
-2.77895e-07
2.13698e-07
-3.53792e-07
2.80467e-07
-4.37317e-07
3.47279e-07
-5.28121e-07
4.14395e-07
-6.25227e-07
4.81183e-07
-7.26996e-07
5.46442e-07
-8.3103e-07
6.08705e-07
-9.35224e-07
6.65991e-07
-1.0378e-06
7.16394e-07
-1.13751e-06
7.58395e-07
-1.23399e-06
7.91187e-07
-1.32726e-06
8.14966e-07
-1.41785e-06
8.30392e-07
-1.50651e-06
8.38486e-07
-1.59397e-06
8.40545e-07
-1.68088e-06
8.37933e-07
-1.76773e-06
8.31929e-07
-1.85487e-06
8.23642e-07
-1.9425e-06
8.13974e-07
-2.03068e-06
8.03615e-07
-2.11943e-06
7.93053e-07
-2.20867e-06
7.82592e-07
-2.29828e-06
7.72377e-07
-2.38811e-06
7.62426e-07
-2.47801e-06
7.52659e-07
-2.56777e-06
7.42929e-07
-2.6572e-06
7.33033e-07
-2.74607e-06
7.22731e-07
-2.83416e-06
7.11766e-07
-2.9212e-06
6.99872e-07
-3.00692e-06
6.86785e-07
-3.09101e-06
6.72253e-07
-3.17317e-06
6.56038e-07
-3.25305e-06
6.37927e-07
-3.33029e-06
6.17739e-07
-3.40452e-06
5.95325e-07
-3.47536e-06
5.7057e-07
-3.54242e-06
5.43395e-07
-3.60531e-06
5.13753e-07
-3.66365e-06
4.81626e-07
-3.71704e-06
4.4703e-07
-3.76514e-06
4.10003e-07
-3.80757e-06
3.70615e-07
-3.844e-06
3.28953e-07
-3.87412e-06
2.8513e-07
-3.89763e-06
2.39276e-07
-3.91425e-06
1.91545e-07
-3.92375e-06
1.42104e-07
-3.92587e-06
9.1136e-08
-3.9204e-06
3.88327e-08
-3.9071e-06
-1.46201e-08
-3.88573e-06
-6.90826e-08
-3.85612e-06
-1.24475e-07
-3.81816e-06
-1.80705e-07
-3.77175e-06
-2.37597e-07
-3.71684e-06
-2.94933e-07
-3.6534e-06
-3.52486e-07
-3.58142e-06
-4.10021e-07
-3.50096e-06
-4.67305e-07
-3.41208e-06
-5.24095e-07
-3.31489e-06
-5.80148e-07
-3.20955e-06
-6.35215e-07
-3.09625e-06
-6.89051e-07
-2.97521e-06
-7.4141e-07
-2.84669e-06
-7.92048e-07
-2.71098e-06
-8.40719e-07
-2.5684e-06
-8.8717e-07
-2.4193e-06
-9.31136e-07
-2.2641e-06
-9.72425e-07
-2.10323e-06
-1.01087e-06
-1.93713e-06
-1.0463e-06
-1.76627e-06
-1.07887e-06
-1.59105e-06
-1.10883e-06
-1.41191e-06
-1.13596e-06
-1.22928e-06
-1.15997e-06
-1.04361e-06
-1.18094e-06
-8.55341e-07
-1.19895e-06
-6.64879e-07
-1.21411e-06
-4.72628e-07
-1.22655e-06
-2.78965e-07
-1.23639e-06
-8.42423e-08
-1.24379e-06
1.11221e-07
-1.24895e-06
3.0714e-07
-1.25212e-06
5.03286e-07
-1.25357e-06
6.99476e-07
-1.25364e-06
8.95595e-07
-1.25268e-06
1.09159e-06
-1.25109e-06
1.28748e-06
-1.24923e-06
1.48336e-06
-1.24745e-06
1.67941e-06
-1.24588e-06
1.87572e-06
-1.24452e-06
2.07241e-06
-1.24163e-06
2.26877e-06
-1.23569e-06
2.46544e-06
-1.21381e-06
2.66127e-06
-1.1713e-06
-1.01773e-06
2.8709e-06
-5.7772e-08
-2.07605e-09
-1.18409e-07
6.43169e-08
-1.83601e-07
1.40856e-07
-2.53083e-07
2.15372e-07
-3.26569e-07
2.87185e-07
-4.04327e-07
3.58227e-07
-4.86445e-07
4.29399e-07
-5.72426e-07
5.00377e-07
-6.61218e-07
5.69974e-07
-7.51356e-07
6.36578e-07
-8.4113e-07
6.98476e-07
-9.29092e-07
7.53949e-07
-1.01426e-06
8.01552e-07
-1.09622e-06
8.40347e-07
-1.17513e-06
8.70096e-07
-1.25143e-06
8.91269e-07
-1.32578e-06
9.04743e-07
-1.39892e-06
9.11629e-07
-1.47154e-06
9.13165e-07
-1.54419e-06
9.10587e-07
-1.61729e-06
9.05029e-07
-1.69111e-06
8.97458e-07
-1.76579e-06
8.8865e-07
-1.84137e-06
8.79195e-07
-1.91782e-06
8.69499e-07
-1.99504e-06
8.59808e-07
-2.0729e-06
8.50223e-07
-2.15121e-06
8.40732e-07
-2.22979e-06
8.31234e-07
-2.30843e-06
8.21565e-07
-2.38691e-06
8.11507e-07
-2.46499e-06
8.00808e-07
-2.54242e-06
7.89194e-07
-2.61894e-06
7.76385e-07
-2.69426e-06
7.62099e-07
-2.76807e-06
7.46063e-07
-2.84006e-06
7.28023e-07
-2.90989e-06
7.07749e-07
-2.97721e-06
6.85046e-07
-3.04165e-06
6.59755e-07
-3.10284e-06
6.31755e-07
-3.16041e-06
6.00964e-07
-3.214e-06
5.67336e-07
-3.26324e-06
5.30861e-07
-3.30777e-06
4.91559e-07
-3.34725e-06
4.49485e-07
-3.38135e-06
4.0472e-07
-3.40976e-06
3.57369e-07
-3.43219e-06
3.07565e-07
-3.44836e-06
2.55457e-07
-3.45802e-06
2.01216e-07
-3.46093e-06
1.4503e-07
-3.45688e-06
8.70949e-08
-3.44564e-06
2.76106e-08
-3.42702e-06
-3.32319e-08
-3.40081e-06
-9.52755e-08
-3.36688e-06
-1.58393e-07
-3.32513e-06
-2.22444e-07
-3.27548e-06
-2.87229e-07
-3.2179e-06
-3.52506e-07
-3.15235e-06
-4.18022e-07
-3.07885e-06
-4.83512e-07
-2.99744e-06
-5.48712e-07
-2.90818e-06
-6.13347e-07
-2.81118e-06
-6.77137e-07
-2.7066e-06
-7.39799e-07
-2.5946e-06
-8.0105e-07
-2.47541e-06
-8.60612e-07
-2.34926e-06
-9.18205e-07
-2.21643e-06
-9.73559e-07
-2.07722e-06
-1.02639e-06
-1.93196e-06
-1.0764e-06
-1.78103e-06
-1.12336e-06
-1.62484e-06
-1.16707e-06
-1.46383e-06
-1.20732e-06
-1.29842e-06
-1.24427e-06
-1.12901e-06
-1.27824e-06
-9.56001e-07
-1.30896e-06
-7.79817e-07
-1.33616e-06
-6.00866e-07
-1.35989e-06
-4.19547e-07
-1.38027e-06
-2.36246e-07
-1.39742e-06
-5.13325e-08
-1.41147e-06
1.34845e-07
-1.42257e-06
3.21962e-07
-1.43092e-06
5.09731e-07
-1.43673e-06
6.979e-07
-1.4403e-06
8.86264e-07
-1.44194e-06
1.07467e-06
-1.44205e-06
1.26303e-06
-1.44105e-06
1.45131e-06
-1.43939e-06
1.63956e-06
-1.43751e-06
1.82791e-06
-1.43582e-06
2.01655e-06
-1.43454e-06
2.20562e-06
-1.4336e-06
2.39532e-06
-1.43135e-06
2.58528e-06
-1.42567e-06
2.77649e-06
-1.40504e-06
2.96881e-06
-1.36363e-06
-1.22544e-06
3.17652e-06
-7.09478e-08
6.88973e-08
-1.40672e-07
1.34048e-07
-2.11842e-07
2.12025e-07
-2.83953e-07
2.87478e-07
-3.57333e-07
3.60559e-07
-4.32509e-07
4.334e-07
-5.09501e-07
5.06388e-07
-5.8773e-07
5.78603e-07
-6.66217e-07
6.48458e-07
-7.43809e-07
7.14167e-07
-8.19385e-07
7.74049e-07
-8.92129e-07
8.2669e-07
-9.6166e-07
8.71079e-07
-1.02806e-06
9.06741e-07
-1.09176e-06
9.33795e-07
-1.15337e-06
9.5288e-07
-1.21358e-06
9.64951e-07
-1.27306e-06
9.71118e-07
-1.33243e-06
9.72539e-07
-1.39217e-06
9.70327e-07
-1.45262e-06
9.65477e-07
-1.514e-06
9.58832e-07
-1.57641e-06
9.5106e-07
-1.63988e-06
9.4266e-07
-1.70435e-06
9.33966e-07
-1.76972e-06
9.25167e-07
-1.83582e-06
9.16324e-07
-1.90248e-06
9.07391e-07
-1.9695e-06
8.98245e-07
-2.03664e-06
8.88706e-07
-2.10369e-06
8.78545e-07
-2.17038e-06
8.67494e-07
-2.23645e-06
8.55267e-07
-2.30165e-06
8.41572e-07
-2.36567e-06
8.26114e-07
-2.42821e-06
8.08605e-07
-2.48897e-06
7.88774e-07
-2.54761e-06
7.66381e-07
-2.60379e-06
7.4122e-07
-2.65717e-06
7.13128e-07
-2.7074e-06
6.8198e-07
-2.75414e-06
6.47699e-07
-2.79705e-06
6.10241e-07
-2.8358e-06
5.69605e-07
-2.87006e-06
5.25822e-07
-2.89954e-06
4.7896e-07
-2.92393e-06
4.29113e-07
-2.94296e-06
3.76406e-07
-2.95637e-06
3.20984e-07
-2.96392e-06
2.63019e-07
-2.96539e-06
2.02696e-07
-2.96056e-06
1.40217e-07
-2.94925e-06
7.57934e-08
-2.93126e-06
9.63503e-09
-2.90642e-06
-5.80579e-08
-2.87458e-06
-1.27106e-07
-2.83561e-06
-1.97343e-07
-2.78945e-06
-2.68593e-07
-2.73604e-06
-3.40632e-07
-2.67533e-06
-4.13203e-07
-2.60732e-06
-4.86025e-07
-2.53201e-06
-5.5881e-07
-2.44945e-06
-6.31267e-07
-2.3597e-06
-7.03091e-07
-2.26286e-06
-7.73968e-07
-2.15907e-06
-8.43583e-07
-2.04851e-06
-9.11621e-07
-1.93135e-06
-9.77768e-07
-1.80785e-06
-1.04172e-06
-1.67825e-06
-1.10317e-06
-1.54284e-06
-1.16182e-06
-1.4019e-06
-1.21735e-06
-1.25578e-06
-1.26948e-06
-1.10487e-06
-1.31798e-06
-9.49591e-07
-1.3626e-06
-7.90346e-07
-1.40351e-06
-6.27493e-07
-1.44109e-06
-4.61421e-07
-1.47503e-06
-2.92518e-07
-1.50505e-06
-1.21155e-07
-1.53125e-06
5.23035e-08
-1.55372e-06
2.27505e-07
-1.57261e-06
4.04113e-07
-1.58807e-06
5.81815e-07
-1.60026e-06
7.60324e-07
-1.60941e-06
9.39381e-07
-1.61578e-06
1.11877e-06
-1.61967e-06
1.29831e-06
-1.62148e-06
1.47788e-06
-1.62162e-06
1.65742e-06
-1.62059e-06
1.83694e-06
-1.6189e-06
2.01652e-06
-1.61708e-06
2.19631e-06
-1.6156e-06
2.37652e-06
-1.61475e-06
2.55735e-06
-1.61443e-06
2.73911e-06
-1.61311e-06
2.92168e-06
-1.60824e-06
3.10639e-06
-1.58975e-06
3.29363e-06
-1.55088e-06
-1.42887e-06
3.49707e-06
-7.80184e-08
1.46957e-07
-1.5634e-07
2.12376e-07
-2.30595e-07
2.86274e-07
-3.01391e-07
3.58263e-07
-3.7109e-07
4.30247e-07
-4.40787e-07
5.03088e-07
-5.10437e-07
5.76031e-07
-5.79406e-07
6.47568e-07
-6.46855e-07
7.15904e-07
-7.1197e-07
7.79278e-07
-7.74107e-07
8.36184e-07
-8.3293e-07
8.8551e-07
-8.8846e-07
9.26606e-07
-9.41048e-07
9.59326e-07
-9.91261e-07
9.84005e-07
-1.03975e-06
1.00137e-06
-1.08719e-06
1.01239e-06
-1.13419e-06
1.01813e-06
-1.18129e-06
1.01964e-06
-1.22891e-06
1.01794e-06
-1.27733e-06
1.0139e-06
-1.32673e-06
1.00823e-06
-1.3772e-06
1.00153e-06
-1.42874e-06