/*--------------------------------*- C++ -*----------------------------------*\
| =========                 |                                                 |
| \\      /  F ield         | OpenFOAM: The Open Source CFD Toolbox           |
|  \\    /   O peration     | Version:  5.x                                   |
|   \\  /    A nd           | Web:      www.OpenFOAM.org                      |
|    \\/     M anipulation  |                                                 |
\*---------------------------------------------------------------------------*/
FoamFile
{
    version     2.0;
    format      ascii;
    class       volScalarField;
    location    "213";
    object      nut;
}
// * * * * * * * * * * * * * * * * * * * * * * * * * * * * * * * * * * * * * //

dimensions      [0 2 -1 0 0 0 0];

internalField   nonuniform List<scalar> 
5760
(
7.89901e-05
7.63616e-05
7.40076e-05
7.15838e-05
6.92722e-05
6.71023e-05
6.51653e-05
6.35703e-05
6.21502e-05
6.10455e-05
6.01349e-05
5.94578e-05
5.89548e-05
5.86157e-05
5.83986e-05
5.8358e-05
5.83656e-05
5.9971e-05
0.000513289
0.000359956
0.000303072
0.000268961
0.000245857
0.000229539
0.000219446
0.000212027
0.000205076
0.000202069
0.000197855
0.000196577
0.000193543
0.000193049
0.000190847
0.000189706
0.000186551
0.000188728
0.000806198
0.000669362
0.000573854
0.000515151
0.000471011
0.000437402
0.000410068
0.000389537
0.000370724
0.000356685
0.000342906
0.000332778
0.000322597
0.000314059
0.000306476
0.000299402
0.000293917
0.000284839
0.000853044
0.000816719
0.000770372
0.000720605
0.00067899
0.000643785
0.000612654
0.000586613
0.000563628
0.000543683
0.000526185
0.000510054
0.000496579
0.000482866
0.000472341
0.000460155
0.000452426
0.000439712
0.00085442
0.000846145
0.000837601
0.000820626
0.000799881
0.00077844
0.000757465
0.000737312
0.000718894
0.000701187
0.000685711
0.000670272
0.000657438
0.000643831
0.000633248
0.000620931
0.000612667
0.000599642
0.000852296
0.000851372
0.000849602
0.000846704
0.000840567
0.000833414
0.000825238
0.00081561
0.000806033
0.000795793
0.000786294
0.000776259
0.000767385
0.000757896
0.000749866
0.000740952
0.000734098
0.000724405
0.000851819
0.000851464
0.000850946
0.000850378
0.0008493
0.00084752
0.000845366
0.0008424
0.000839164
0.000835239
0.000831307
0.00082682
0.000822555
0.000817824
0.000813493
0.000808724
0.000804552
0.000799132
0.000851782
0.000851373
0.000850993
0.000850598
0.000850242
0.00084972
0.00084918
0.000848383
0.000847538
0.00084638
0.000845216
0.000843704
0.000842294
0.000840468
0.000838938
0.000836811
0.000835351
0.000832837
0.000851783
0.000851359
0.000850979
0.00085059
0.000850256
0.000849892
0.000849575
0.000849196
0.000848855
0.000848413
0.000848017
0.000847478
0.000847016
0.000846362
0.000845846
0.00084507
0.000844528
0.000843631
0.000851782
0.000851361
0.000850971
0.000850589
0.000850239
0.000849891
0.000849576
0.000849257
0.000848969
0.00084867
0.000848401
0.00084811
0.000847852
0.000847562
0.000847308
0.000847012
0.000846756
0.000846453
0.00085178
0.000851362
0.000850967
0.000850588
0.00085023
0.000849887
0.000849562
0.00084925
0.000848956
0.000848671
0.000848403
0.000848143
0.000847898
0.000847659
0.000847434
0.000847215
0.000847006
0.000846804
0.000851779
0.000851362
0.000850965
0.000850586
0.000850226
0.000849882
0.000849555
0.000849243
0.000848946
0.000848662
0.000848391
0.000848132
0.000847884
0.000847648
0.000847422
0.000847206
0.000846999
0.000846802
0.000851779
0.000851361
0.000850963
0.000850585
0.000850224
0.00084988
0.000849552
0.000849239
0.000848941
0.000848656
0.000848384
0.000848125
0.000847876
0.000847639
0.000847411
0.000847194
0.000846986
0.000846787
0.000851779
0.000851362
0.000850963
0.000850585
0.000850224
0.00084988
0.000849552
0.00084924
0.000848941
0.000848657
0.000848384
0.000848125
0.000847873
0.000847635
0.000847403
0.000847183
0.000846967
0.000846765
0.000851777
0.000851363
0.000850963
0.000850589
0.000850225
0.00084988
0.000849536
0.000849207
0.000848868
0.000848541
0.000848197
0.000847868
0.000847513
0.000847181
0.000846811
0.000846478
0.000846091
0.000845767
0.000851757
0.000851367
0.000850944
0.00085049
0.000849926
0.000849267
0.000848432
0.000847479
0.000846345
0.000845124
0.000843737
0.000842327
0.000840755
0.000839237
0.000837536
0.000835996
0.000834192
0.000832714
0.000851414
0.000850882
0.000848861
0.00084547
0.000840834
0.000835294
0.000828926
0.00082225
0.00081521
0.000808216
0.000801246
0.00079449
0.000787786
0.000781452
0.000775218
0.000769368
0.000763616
0.000758602
0.000843186
0.000832501
0.000805736
0.000779183
0.000754081
0.000729712
0.000707454
0.000687767
0.000669926
0.000654282
0.000639923
0.000627415
0.000615663
0.000605577
0.000595751
0.000587585
0.000579162
0.000572561
0.000741328
0.00062366
0.000554562
0.000509316
0.000474226
0.000447924
0.000427576
0.000411819
0.000399063
0.000388903
0.000380284
0.000373314
0.000367125
0.000362105
0.000357434
0.000353837
0.000349892
0.000347276
0.000177914
0.000174197
0.000170928
0.000167935
0.000165046
0.000162281
0.000159662
0.000157211
0.000154933
0.000152834
0.000150903
0.00014914
0.000147525
0.000146059
0.000144716
0.000143503
0.000142389
0.000141384
2.17294e-06
9.59946e-06
1.67519e-05
2.48823e-05
3.5476e-05
4.92631e-05
6.56539e-05
8.36165e-05
0.000102299
0.000121134
0.000139553
0.000156799
0.000171575
0.000183629
0.000189118
0.000184839
0.000168782
3.24351e-05
3.71942e-05
4.31201e-05
0.000262906
0.000257465
4.66955e-05
5.20874e-05
5.37865e-05
5.61288e-05
5.83097e-05
6.05165e-05
6.2681e-05
6.48376e-05
6.69704e-05
6.90889e-05
7.11895e-05
7.32741e-05
7.53414e-05
7.73906e-05
7.94202e-05
8.14283e-05
8.34127e-05
8.5371e-05
8.73003e-05
8.91977e-05
9.10602e-05
9.28842e-05
9.46666e-05
9.64037e-05
9.8092e-05
9.97274e-05
0.000101306
0.000102823
0.000104273
0.000105651
0.000106949
0.000108165
0.000109309
0.000110382
0.000111379
0.0001123
0.000113141
0.000113902
0.000114581
0.000115176
0.000115686
0.000116109
0.000116445
0.000116693
0.000116853
0.000116925
0.000116909
0.000116808
0.000116621
0.000116348
0.000115963
0.00011551
0.000115006
0.000114407
0.000113726
0.000112972
0.000112147
0.000111255
0.000110299
0.000109285
0.000108216
0.000107097
0.000105932
0.000104727
0.000103486
0.000102213
0.000100915
9.95957e-05
9.82651e-05
9.70215e-05
9.6215e-05
9.54624e-05
9.47155e-05
9.39585e-05
9.32256e-05
9.24085e-05
9.16862e-05
8.92935e-05
7.9662e-06
5.50024e-05
9.31917e-05
0.000111576
0.000125863
0.000142049
0.000160692
0.000180642
0.000200597
0.000219426
0.000235991
0.000248932
0.000256603
0.000256769
0.000245912
0.000222432
0.000189038
0.000150177
0.000187153
0.000227311
0.000300237
0.000283026
0.000251076
0.000272435
0.000286113
0.000301717
0.000317861
0.000334037
0.000350621
0.00036735
0.00038434
0.000401539
0.000418984
0.000436673
0.000454621
0.000472831
0.000491307
0.000510045
0.000529036
0.000548267
0.000567719
0.000587369
0.00060719
0.000627152
0.00064722
0.000667361
0.000687537
0.000707713
0.000727851
0.000747911
0.000767846
0.000787575
0.000806925
0.000825494
0.000842463
0.000858307
0.000873823
0.000888822
0.000903308
0.000917237
0.000930577
0.000943295
0.000955359
0.00096674
0.00097741
0.000987343
0.000996515
0.00100491
0.00101251
0.00101933
0.00102542
0.00103092
0.00103496
0.00103798
0.00104094
0.00104302
0.00104413
0.00104444
0.00104397
0.00104275
0.00104082
0.0010382
0.00103494
0.00103107
0.00102663
0.00102167
0.00101624
0.00101037
0.00100411
0.000997489
0.000990477
0.000982254
0.000969473
0.000955507
0.000941257
0.000926861
0.000912339
0.000897542
0.000882286
0.000849969
1.50481e-05
9.15492e-05
0.000152011
0.000187456
0.000210738
0.000230747
0.000250965
0.000271662
0.000291971
0.000310812
0.00032706
0.000339513
0.000346908
0.000348522
0.000345207
0.000339928
0.000337705
0.000348506
0.000400957
0.000445238
0.000482524
0.000494201
0.000510079
0.00054431
0.000574649
0.000606437
0.000638735
0.000671322
0.000704372
0.000737751
0.000771535
0.000805704
0.000840291
0.000875302
0.000910747
0.000946628
0.000982937
0.00101966
0.00105677
0.00109423
0.001132
0.00117003
0.00120827
0.00124665
0.00128511
0.00132358
0.00136198
0.00140024
0.00143826
0.00147595
0.0015132
0.00154982
0.00158557
0.00162008
0.00165299
0.0016848
0.00171577
0.00174571
0.00177458
0.00180231
0.00182882
0.00185405
0.00187794
0.00190044
0.00192148
0.00194102
0.00195901
0.00197542
0.00199022
0.00200343
0.00201509
0.00202574
0.00203356
0.00203905
0.00204451
0.00204805
0.00204978
0.00204987
0.0020484
0.00204543
0.002041
0.0020352
0.00202809
0.00201975
0.00201026
0.00199971
0.00198818
0.00197576
0.00196254
0.00194858
0.00193384
0.00191751
0.00189662
0.0018739
0.00185047
0.00182659
0.00180241
0.00177749
0.00175072
0.00169683
2.23592e-05
0.0001198
0.000197069
0.000242972
0.00027279
0.00029664
0.000319117
0.000341389
0.000363179
0.000383862
0.000402852
0.000419694
0.00043415
0.000446579
0.000458537
0.000473225
0.000495439
0.000530434
0.000580177
0.000624401
0.000663526
0.000697116
0.00073457
0.000778745
0.000821978
0.000866216
0.000911155
0.000956555
0.00100248
0.00104888
0.00109581
0.00114327
0.00119127
0.00123982
0.00128894
0.0013386
0.00138878
0.00143946
0.0014906
0.00154214
0.00159402
0.00164617
0.00169851
0.00175095
0.0018034
0.00185576
0.00190792
0.00195978
0.00201122
0.00206209
0.00211224
0.00216148
0.00220958
0.00225627
0.00230144
0.00234535
0.00238802
0.00242931
0.00246912
0.00250736
0.00254394
0.00257878
0.00261179
0.0026429
0.00267204
0.00269913
0.00272411
0.00274693
0.00276756
0.00278601
0.00280245
0.00281754
0.00282848
0.00283673
0.00284471
0.00284997
0.00285284
0.00285348
0.00285197
0.00284839
0.00284282
0.00283535
0.00282607
0.00281507
0.00280248
0.00278839
0.00277294
0.00275622
0.00273835
0.00271942
0.00269943
0.00267779
0.00265252
0.00262522
0.0025969
0.00256789
0.00253845
0.00250812
0.00247515
0.00241424
2.93619e-05
0.000144204
0.000235276
0.000290241
0.000325713
0.000353038
0.000377843
0.000402161
0.000426372
0.000450384
0.000474122
0.000497623
0.000521052
0.000544857
0.000570159
0.000599201
0.000635202
0.000679695
0.000730268
0.000779324
0.000826828
0.000874374
0.000924407
0.00097773
0.00103097
0.00108496
0.00113946
0.00119453
0.00125021
0.00130647
0.00136334
0.00142083
0.00147892
0.00153764
0.00159695
0.00165685
0.00171729
0.00177823
0.00183961
0.00190137
0.00196342
0.00202567
0.00208804
0.00215041
0.00221268
0.00227473
0.00233644
0.00239768
0.00245832
0.00251821
0.00257718
0.00263509
0.00269176
0.00274709
0.00280098
0.00285346
0.00290445
0.00295381
0.00300146
0.00304728
0.00309116
0.00313302
0.00317276
0.0032103
0.00324553
0.0032784
0.00330882
0.00333672
0.00336206
0.00338481
0.00340547
0.00342432
0.00343816
0.00344958
0.00346012
0.00346755
0.00347221
0.00347425
0.00347375
0.0034708
0.00346549
0.00345791
0.00344816
0.00343635
0.00342261
0.00340706
0.00338983
0.00337105
0.00335085
0.00332932
0.00330652
0.00328209
0.00325485
0.00322563
0.0031952
0.00316391
0.0031321
0.00309941
0.00306379
0.00300367
3.59419e-05
0.000165383
0.000268146
0.000331434
0.000372286
0.000403075
0.00043037
0.000457015
0.000484007
0.000511702
0.00054036
0.000570268
0.000601711
0.000635015
0.000670764
0.00071013
0.000754824
0.000805125
0.000859196
0.000913963
0.00096906
0.00102539
0.00108362
0.00114354
0.00120402
0.00126517
0.00132692
0.00138928
0.00145225
0.00151584
0.00158003
0.00164484
0.00171025
0.00177626
0.00184285
0.00190999
0.00197763
0.00204573
0.00211422
0.00218303
0.00225208
0.00232127
0.0023905
0.00245967
0.00252867
0.00259737
0.00266566
0.00273339
0.00280044
0.00286665
0.0029319
0.00299602
0.00305888
0.00312037
0.00318041
0.00323893
0.00329583
0.003351
0.0034043
0.00345564
0.0035049
0.00355199
0.00359679
0.00363922
0.00367918
0.00371658
0.00375134
0.00378339
0.00381265
0.00383906
0.00386346
0.0038854
0.00390222
0.00391687
0.00392999
0.00393984
0.00394667
0.00395063
0.0039518
0.00395027
0.00394612
0.00393945
0.00393037
0.00391898
0.00390541
0.0038898
0.00387228
0.00385298
0.00383203
0.00380957
0.00378566
0.00376012
0.0037323
0.00370262
0.00367163
0.0036397
0.00360719
0.00357398
0.00353795
0.00348214
4.19423e-05
0.000183371
0.000296271
0.000367368
0.000413579
0.000448023
0.00047806
0.000507253
0.000537141
0.000568427
0.000601572
0.000636968
0.00067487
0.000715465
0.000758971
0.000805847
0.000856828
0.00091186
0.000969836
0.00102944
0.00109022
0.00115245
0.00121615
0.00128106
0.00134673
0.00141309
0.00148006
0.00154763
0.00161577
0.00168448
0.00175376
0.00182359
0.00189398
0.00196491
0.00203635
0.00210828
0.00218066
0.00225343
0.00232655
0.00239993
0.0024735
0.00254718
0.00262087
0.00269447
0.00276787
0.00284095
0.00291359
0.00298567
0.00305706
0.00312762
0.00319721
0.00326571
0.00333297
0.00339889
0.00346337
0.00352629
0.00358756
0.00364704
0.00370462
0.00376017
0.00381359
0.00386477
0.00391359
0.00395995
0.00400377
0.00404494
0.00408337
0.00411898
0.00415167
0.00418138
0.00420911
0.00423368
0.00425363
0.00427146
0.00428724
0.00429965
0.00430888
0.00431509
0.00431835
0.00431873
0.00431633
0.00431122
0.00430352
0.00429334
0.00428081
0.00426605
0.0042492
0.0042304
0.00420978
0.00418748
0.00416358
0.00413805
0.00411053
0.00408126
0.00405064
0.00401903
0.00398684
0.00395417
0.00391902
0.00386885
4.72209e-05
0.000198207
0.000319892
0.000398347
0.00044995
0.000488281
0.000521318
0.000553224
0.000585998
0.000620599
0.000657568
0.00069755
0.000740536
0.000786584
0.0008357
0.000887944
0.000943495
0.00100216
0.00106344
0.00112662
0.0011913
0.00125732
0.00132456
0.00139281
0.00146189
0.00153171
0.0016021
0.00167301
0.00174441
0.00181629
0.00188866
0.0019615
0.00203482
0.0021086
0.00218282
0.00225748
0.00233254
0.00240796
0.00248369
0.00255969
0.00263588
0.00271219
0.00278854
0.00286482
0.00294095
0.00301682
0.0030923
0.00316728
0.00324164
0.00331524
0.00338795
0.00345963
0.00353016
0.00359941
0.00366727
0.0037336
0.0037983
0.00386122
0.00392224
0.00398124
0.0040381
0.0040927
0.00414493
0.00419468
0.00424185
0.00428635
0.00432806
0.00436689
0.00440275
0.00443557
0.00446628
0.00449339
0.00451651
0.00453746
0.00455601
0.00457107
0.00458287
0.00459154
0.00459715
0.00459979
0.0045995
0.00459639
0.00459056
0.00458211
0.00457116
0.00455785
0.00454232
0.00452469
0.0045051
0.00448369
0.00446057
0.00443576
0.00440912
0.0043808
0.00435112
0.00432042
0.00428916
0.00425764
0.00422405
0.00417967
5.16884e-05
0.000209987
0.000339176
0.000424503
0.000481473
0.000523867
0.000560099
0.000594811
0.00063041
0.000668078
0.000708256
0.000751186
0.000797365
0.000846801
0.00089938
0.000954983
0.00101355
0.00107486
0.0011386
0.00120422
0.00127134
0.00133981
0.00140943
0.00147995
0.00155102
0.00162268
0.00169479
0.00176729
0.00184015
0.00191338
0.00198698
0.00206097
0.00213535
0.00221014
0.00228534
0.00236094
0.00243696
0.00251335
0.00259011
0.0026672
0.00274455
0.00282212
0.00289983
0.0029776
0.00305533
0.00313293
0.00321027
0.00328725
0.00336373
0.00343958
0.00351467
0.00358886
0.003662
0.00373397
0.00380461
0.00387381
0.00394141
0.0040073
0.00407132
0.00413336
0.00419327
0.00425095
0.00430627
0.00435912
0.00440939
0.00445697
0.00450177
0.00454368
0.00458257
0.00461848
0.00465187
0.0046816
0.00470791
0.00473192
0.00475341
0.00477121
0.0047857
0.004797
0.00480519
0.00481031
0.00481242
0.00481161
0.00480798
0.00480162
0.00479266
0.00478123
0.00476745
0.00475146
0.00473339
0.00471338
0.00469155
0.00466798
0.00464263
0.00461563
0.00458725
0.00455783
0.00452789
0.00449785
0.00446614
0.0044272
5.52978e-05
0.000218856
0.000354307
0.000445946
0.000508149
0.000554667
0.000594201
0.000631628
0.000669148
0.000708462
0.000750601
0.000796213
0.000845116
0.0008972
0.000952303
0.00101022
0.00107077
0.0011337
0.00119866
0.00126527
0.00133319
0.00140223
0.00147219
0.00154286
0.00161422
0.00168625
0.00175844
0.00183079
0.00190332
0.0019761
0.00204916
0.00212253
0.00219626
0.00227038
0.00234495
0.00242
0.00249554
0.0025716
0.00264816
0.0027252
0.0028027
0.00288059
0.00295883
0.00303733
0.00311599
0.00319472
0.0032734
0.00335189
0.00343007
0.00350779
0.00358491
0.00366127
0.00373672
0.00381111
0.00388429
0.0039561
0.00402639
0.00409503
0.00416186
0.00422675
0.00428955
0.00435015
0.00440842
0.00446424
0.00451751
0.0045681
0.00461591
0.00466084
0.00470276
0.00474171
0.00477768
0.00481017
0.00483967
0.00486673
0.0048914
0.004912
0.0049293
0.00494341
0.00495434
0.00496216
0.0049669
0.00496865
0.00496748
0.00496351
0.00495685
0.00494761
0.00493593
0.00492194
0.00490577
0.00488756
0.00486742
0.00484545
0.00482171
0.00479632
0.00476953
0.00474166
0.00471327
0.00468492
0.0046552
0.00462119
5.80551e-05
0.000225019
0.00036552
0.000462823
0.000530004
0.000580518
0.000622557
0.000661547
0.000701139
0.000742955
0.000787508
0.000834918
0.000885316
0.000938651
0.000994742
0.00105336
0.00111425
0.00117715
0.00124175
0.00130775
0.00137487
0.00144285
0.00151153
0.00158066
0.0016505
0.00172096
0.00179156
0.00186196
0.00193235
0.00200289
0.00207366
0.00214476
0.00221626
0.00228828
0.0023609
0.00243418
0.0025082
0.00258297
0.00265851
0.00273483
0.00281189
0.00288964
0.00296801
0.00304693
0.00312627
0.00320594
0.00328579
0.00336568
0.00344546
0.00352498
0.00360406
0.00368254
0.00376025
0.00383702
0.00391268
0.00398705
0.00405999
0.00413133
0.00420092
0.00426861
0.00433427
0.00439776
0.00445894
0.00451771
0.00457394
0.00462753
0.00467835
0.00472632
0.0047713
0.00481324
0.00485199
0.00488725
0.0049199
0.00495017
0.00497817
0.00500166
0.00502193
0.00503899
0.00505287
0.00506358
0.00507118
0.00507572
0.00507728
0.00507596
0.00507187
0.00506512
0.00505585
0.00504417
0.00503022
0.00501413
0.00499601
0.00497599
0.00495415
0.00493063
0.00490566
0.00487957
0.00485293
0.00482639
0.0047987
0.00476909
5.99781e-05
0.000228716
0.000373079
0.000475328
0.00054667
0.000599795
0.000644445
0.000686321
0.00072811
0.000771303
0.000816801
0.000864884
0.000915616
0.000968903
0.00102455
0.00108232
0.00114195
0.00120314
0.00126563
0.00132921
0.00139363
0.00145854
0.00152404
0.00159039
0.0016572
0.0017238
0.00179038
0.0018569
0.00192331
0.0019899
0.00205682
0.00212422
0.00219224
0.00226107
0.00233082
0.00240162
0.00247354
0.00254661
0.00262087
0.0026963
0.00277285
0.00285046
0.00292904
0.00300848
0.00308865
0.00316942
0.00325062
0.00333208
0.00341363
0.0034951
0.00357628
0.003657
0.00373707
0.0038163
0.00389451
0.00397151
0.00404713
0.00412121
0.00419359
0.00426411
0.00433263
0.00439902
0.00446314
0.00452486
0.00458408
0.00464068
0.00469455
0.00474558
0.00479365
0.00483867
0.00488019
0.00491845
0.00495424
0.00498795
0.00501928
0.00504583
0.00506923
0.00508944
0.00510645
0.00512028
0.00513096
0.00513853
0.00514307
0.00514467
0.00514343
0.00513947
0.0051329
0.00512384
0.00511242
0.00509877
0.005083
0.00506524
0.00504559
0.00502419
0.00500129
0.00497719
0.00495248
0.00492787
0.00490222
0.00487658
6.11365e-05
0.00023014
0.000377112
0.000482527
0.000556928
0.000613836
0.000661578
0.000705501
0.000748826
0.000793022
0.000838922
0.000886844
0.000936821
0.000988711
0.00104227
0.0010973
0.00115351
0.00121053
0.0012681
0.00132634
0.00138538
0.00144585
0.00150666
0.00156721
0.00162763
0.00168786
0.00174818
0.00180878
0.0018696
0.00193092
0.00199294
0.00205579
0.00211972
0.00218495
0.00225166
0.00231997
0.00238995
0.00246162
0.00253497
0.00260995
0.00268648
0.00276446
0.00284375
0.00292422
0.00300569
0.00308799
0.00317093
0.00325432
0.00333796
0.00342164
0.00350516
0.00358831
0.0036709
0.00375271
0.00383356
0.00391327
0.00399163
0.00406849
0.00414368
0.00421705
0.00428845
0.00435774
0.00442479
0.00448948
0.0045517
0.00461134
0.00466827
0.00472241
0.00477362
0.00482172
0.00486599
0.00490769
0.00494652
0.00498394
0.00501854
0.00504834
0.00507505
0.00509861
0.00511897
0.00513615
0.00515015
0.00516102
0.00516881
0.00517362
0.00517552
0.00517464
0.00517108
0.00516496
0.0051564
0.00514552
0.00513242
0.00511724
0.00510009
0.00508111
0.00506054
0.00503865
0.00501609
0.00499353
0.00496996
0.00494797
6.15181e-05
0.000229725
0.000378004
0.000486824
0.000565468
0.000625455
0.000675288
0.000720263
0.000763505
0.000806642
0.000850606
0.00089576
0.000942124
0.000989467
0.00103739
0.00108604
0.00113547
0.00118613
0.00123818
0.00129064
0.00134333
0.0013958
0.00144781
0.00149933
0.00155071
0.00160235
0.00165465
0.00170814
0.00176275
0.00181861
0.00187585
0.00193447
0.00199482
0.00205719
0.00212175
0.00218857
0.00225768
0.00232902
0.00240251
0.00247806
0.00255552
0.00263474
0.00271553
0.00279771
0.00288109
0.00296544
0.00305056
0.00313624
0.00322225
0.00330837
0.00339439
0.00348009
0.00356527
0.00364972
0.00373323
0.00381562
0.0038967
0.0039763
0.00405425
0.00413042
0.00420465
0.00427679
0.00434675
0.00441436
0.00447956
0.00454222
0.00460221
0.00465947
0.00471385
0.0047647
0.00481238
0.00485745
0.00489937
0.00494072
0.00497853
0.00501178
0.00504201
0.00506911
0.00509306
0.00511382
0.00513141
0.00514585
0.0051572
0.00516551
0.00517088
0.00517341
0.0051732
0.00517036
0.005165
0.00515723
0.00514717
0.00513491
0.00512059
0.00510434
0.00508639
0.005067
0.00504679
0.00502647
0.00500505
0.00498651
6.14235e-05
0.000228527
0.000377925
0.000489172
0.000569689
0.000630662
0.000680241
0.000723712
0.000764236
0.00080344
0.000841965
0.000880466
0.000919199
0.000958628
0.000999551
0.00104076
0.00108205
0.00112356
0.00116476
0.00120566
0.00124574
0.00128501
0.00132461
0.00136519
0.00140685
0.00145
0.00149503
0.00154217
0.00159185
0.00164418
0.00169887
0.0017553
0.00181416
0.00187579
0.00194028
0.00200758
0.00207763
0.00215028
0.00222538
0.00230276
0.00238223
0.00246359
0.00254661
0.0026311
0.00271683
0.00280357
0.00289112
0.00297923
0.00306769
0.00315627
0.00324477
0.00333296
0.00342065
0.00350762
0.00359368
0.00367865
0.00376234
0.00384457
0.00392518
0.00400406
0.00408104
0.00415597
0.00422879
0.00429929
0.00436748
0.00443318
0.00449626
0.00455671
0.00461403
0.00466801
0.0047196
0.00476784
0.00481323
0.00485867
0.00489971
0.00493673
0.00497077
0.00500174
0.00502959
0.00505429
0.00507582
0.00509421
0.00510949
0.00512172
0.00513096
0.00513732
0.00514087
0.00514174
0.00514
0.00513578
0.00512916
0.00512025
0.00510915
0.005096
0.00508102
0.00506443
0.00504688
0.005029
0.00500986
0.00499463
6.09992e-05
0.000225756
0.000374271
0.000485065
0.000564434
0.000622853
0.000667896
0.000705203
0.000738244
0.000769559
0.000800428
0.000830439
0.000859608
0.000888072
0.000915719
0.00094262
0.000968665
0.000992956
0.00101677
0.00104103
0.00106652
0.00109386
0.00112359
0.0011562
0.00119184
0.00123077
0.0012731
0.00131882
0.00136794
0.00142034
0.00147518
0.0015327
0.00159338
0.00165722
0.00172412
0.00179397
0.00186657
0.00194176
0.00201935
0.00209913
0.00218092
0.0022645
0.00234967
0.00243623
0.00252396
0.00261267
0.00270213
0.00279213
0.00288247
0.00297294
0.00306332
0.00315342
0.00324305
0.003332
0.00342008
0.00350714
0.00359296
0.00367739
0.00376025
0.00384149
0.0039209
0.00399832
0.00407376
0.00414691
0.00421792
0.00428651
0.00435256
0.00441557
0.00447554
0.00453331
0.00458799
0.00463914
0.00468857
0.00473759
0.00478192
0.00482291
0.00486098
0.00489607
0.00492813
0.00495711
0.00498299
0.00500577
0.00502546
0.00504209
0.00505573
0.00506645
0.00507434
0.00507946
0.00508192
0.00508181
0.00507921
0.00507419
0.00506684
0.00505724
0.00504567
0.00503229
0.00501775
0.00500264
0.00498602
0.00497415
6.03395e-05
0.000222346
0.000367631
0.000473521
0.000545926
0.000596185
0.000633463
0.000661965
0.000684932
0.000704042
0.000720148
0.000734359
0.000746632
0.000756726
0.000764426
0.000771863
0.00078017
0.000790519
0.000803446
0.000819739
0.000840003
0.000864668
0.000893891
0.000927582
0.000965404
0.00100748
0.00105342
0.00110295
0.00115569
0.00121055
0.00126769
0.00132815
0.00139165
0.00145802
0.00152711
0.00159878
0.00167288
0.00174925
0.00182775
0.00190821
0.00199049
0.00207442
0.00215982
0.00224654
0.00233439
0.0024232
0.00251278
0.00260292
0.00269345
0.00278417
0.00287488
0.00296538
0.00305554
0.00314514
0.00323393
0.00332187
0.00340867
0.00349419
0.00357826
0.00366061
0.00374105
0.0038196
0.00389641
0.00397095
0.00404366
0.00411402
0.0041817
0.00424721
0.00431052
0.0043712
0.0044288
0.00448276
0.00453613
0.00458832
0.00463591
0.00468061
0.00472249
0.00476147
0.00479751
0.00483055
0.00486056
0.00488751
0.00491142
0.00493229
0.00495019
0.00496515
0.00497727
0.0049866
0.00499322
0.00499722
0.00499865
0.0049976
0.00499417
0.00498844
0.00498057
0.00497067
0.00495937
0.00494719
0.00493317
0.00492459
5.95117e-05
0.000218006
0.000355653
0.000451207
0.000512094
0.000549064
0.00057023
0.000580565
0.000584439
0.000583796
0.000579039
0.000570905
0.000562517
0.000555659
0.000551747
0.000552054
0.000557529
0.000568864
0.00058603
0.000608769
0.000636501
0.00066916
0.000706526
0.000747845
0.000792186
0.000840271
0.000891066
0.000943409
0.000997193
0.00105334
0.00111218
0.00117356
0.00123732
0.00130338
0.00137165
0.00144206
0.00151454
0.00158901
0.00166539
0.00174358
0.00182349
0.001905
0.001988
0.00207232
0.00215786
0.00224447
0.00233197
0.00242013
0.00250886
0.00259796
0.0026872
0.00277639
0.00286548
0.00295418
0.00304223
0.0031292
0.00321512
0.00329994
0.0033836
0.00346646
0.00354758
0.00362702
0.00370507
0.0037808
0.00385516
0.00392647
0.00399641
0.00406391
0.00412917
0.004192
0.00425171
0.00430795
0.00436459
0.00441918
0.00446965
0.00451755
0.00456279
0.00460528
0.00464496
0.00468176
0.00471564
0.00474656
0.0047745
0.00479949
0.00482153
0.00484067
0.00485696
0.00487047
0.00488124
0.00488936
0.00489486
0.00489781
0.00489822
0.0048962
0.00489191
0.0048854
0.00487729
0.004868
0.00485671
0.0048511
5.86514e-05
0.000211269
0.000336038
0.000412585
0.000449471
0.000460596
0.000456628
0.000441743
0.000421242
0.000399229
0.000378429
0.000362647
0.000353721
0.000352735
0.000359796
0.00037429
0.000395003
0.000421755
0.000453902
0.000490074
0.000528744
0.000570288
0.000614783
0.000661072
0.000707933
0.000755095
0.000803781
0.000854443
0.000907098
0.00096152
0.00101777
0.00107587
0.00113584
0.00119769
0.00126143
0.00132706
0.00139458
0.00146397
0.0015352
0.00160825
0.00168306
0.00175955
0.00183765
0.00191721
0.00199817
0.00208041
0.00216375
0.00224795
0.00233298
0.00241865
0.00250468
0.00259068
0.00267664
0.00276237
0.00284816
0.00293352
0.00301813
0.00310197
0.00318486
0.003267
0.00334737
0.00342636
0.00350445
0.00357981
0.00365437
0.00372669
0.00379726
0.00386577
0.00393227
0.00399651
0.0040575
0.00411594
0.0041753
0.00423197
0.00428517
0.00433599
0.00438431
0.00443002
0.00447305
0.00451332
0.00455078
0.00458539
0.00461711
0.00464593
0.00467186
0.00469494
0.0047152
0.00473268
0.00474743
0.00475951
0.00476894
0.00477578
0.00478001
0.0047817
0.00478098
0.00477786
0.00477293
0.0047665
0.00475749
0.00475435
5.78074e-05
0.000200082
0.000298512
0.000338977
0.000337591
0.000316296
0.000286861
0.000253468
0.000228171
0.000213421
0.000209127
0.000215833
0.000231526
0.000255131
0.000285626
0.00032048
0.000356956
0.000396125
0.000437805
0.000480111
0.000521527
0.000562025
0.000602509
0.000643779
0.000686517
0.000730425
0.000775404
0.000821584
0.000869087
0.000917953
0.000968262
0.0010201
0.00107355
0.00112868
0.00118555
0.00124421
0.00130471
0.00136706
0.00143127
0.00149736
0.00156531
0.00163507
0.0017066
0.00177974
0.00185453
0.00193083
0.00200846
0.00208714
0.00216665
0.00224694
0.00232796
0.00240981
0.00249213
0.00257455
0.00265714
0.00273933
0.00282104
0.00290236
0.00298304
0.00306343
0.00314186
0.00321926
0.0032961
0.003371
0.00344499
0.00351752
0.00358847
0.00365765
0.00372507
0.00379036
0.00385215
0.00391203
0.00397239
0.00402987
0.00408465
0.00413727
0.00418762
0.00423559
0.00428109
0.00432406
0.00436441
0.0044021
0.00443707
0.00446929
0.00449874
0.00452544
0.0045494
0.00457064
0.00458918
0.00460507
0.00461831
0.00462892
0.00463685
0.00464213
0.00464484
0.00464492
0.00464293
0.00463903
0.00463231
0.00463125
5.68024e-05
0.000176304
0.000221842
0.000215584
0.000178626
0.000144971
0.000125485
0.000117436
0.000124046
0.000142147
0.000171128
0.000206657
0.000244653
0.000284643
0.000327072
0.000368664
0.000407074
0.000443613
0.000478758
0.000513804
0.000549564
0.000585506
0.000621807
0.000658484
0.000695838
0.000733985
0.000772994
0.000812964
0.000854007
0.000896218
0.000939697
0.000984543
0.00103085
0.00107872
0.00112823
0.00117946
0.00123246
0.00128727
0.00134394
0.00140253
0.00146303
0.00152542
0.00158968
0.00165564
0.00172323
0.00179238
0.00186297
0.00193522
0.00200884
0.0020836
0.00215931
0.00223583
0.00231313
0.00239077
0.00246901
0.0025469
0.00262467
0.00270251
0.00278003
0.00285764
0.00293426
0.00300998
0.00308509
0.00315894
0.00323121
0.00330209
0.00337159
0.00343962
0.00350622
0.0035708
0.00363179
0.00369263
0.00375357
0.00381158
0.0038676
0.00392166
0.00397368
0.00402354
0.00407115
0.00411644
0.00415932
0.00419973
0.0042376
0.00427288
0.00430552
0.00433552
0.00436287
0.00438757
0.00440963
0.00442908
0.00444587
0.00446003
0.00447145
0.00448013
0.00448609
0.00448924
0.00449006
0.00448858
0.00448402
0.00448444
5.56868e-05
0.000124035
0.000101973
7.98538e-05
6.35791e-05
6.6646e-05
8.35617e-05
0.000117323
0.000156113
0.000196961
0.000243119
0.000287137
0.000326766
0.000361588
0.000393935
0.000425297
0.000456846
0.000488079
0.000518701
0.000549221
0.00057976
0.00061006
0.00064114
0.000672562
0.000704519
0.000737145
0.000770533
0.000804771
0.000839949
0.000876165
0.000913516
0.000952098
0.000992006
0.00103334
0.00107618
0.00112062
0.00116672
0.0012145
0.00126403
0.00131533
0.00136844
0.00142337
0.00148012
0.00153898
0.00159969
0.00166209
0.00172612
0.00179169
0.00185871
0.00192704
0.00199654
0.0020671
0.00213873
0.00221123
0.00228453
0.00235813
0.00243187
0.00250586
0.00257932
0.00265257
0.00272529
0.00279736
0.00286892
0.00293963
0.00300948
0.00307833
0.00314606
0.00321263
0.00327811
0.00334146
0.00340165
0.00346255
0.00352324
0.0035813
0.00363782
0.00369266
0.00374569
0.00379682
0.00384594
0.00389297
0.00393784
0.00398046
0.00402075
0.00405863
0.00409402
0.00412692
0.00415728
0.00418508
0.00421032
0.004233
0.00425304
0.00427046
0.00428509
0.00429691
0.00430587
0.00431183
0.00431522
0.00431588
0.0043133
0.00431449
5.78841e-05
4.45702e-05
3.15635e-05
3.99268e-05
7.08634e-05
0.000112801
0.000154752
0.000209542
0.000252608
0.000289852
0.000321883
0.00035103
0.000380991
0.000407727
0.000434834
0.000461128
0.000487028
0.000512827
0.000538564
0.000564353
0.000590383
0.000616532