/*--------------------------------*- C++ -*----------------------------------*\
| =========                 |                                                 |
| \\      /  F ield         | OpenFOAM: The Open Source CFD Toolbox           |
|  \\    /   O peration     | Version:  5.x                                   |
|   \\  /    A nd           | Web:      www.OpenFOAM.org                      |
|    \\/     M anipulation  |                                                 |
\*---------------------------------------------------------------------------*/
FoamFile
{
    version     2.0;
    format      ascii;
    class       surfaceScalarField;
    location    "213";
    object      phi;
}
// * * * * * * * * * * * * * * * * * * * * * * * * * * * * * * * * * * * * * //

dimensions      [0 3 -1 0 0 0 0];

internalField   nonuniform List<scalar> 
11337
(
4.3549e-06
2.17211e-08
4.30495e-06
4.99575e-08
4.25257e-06
5.23758e-08
4.19963e-06
5.29442e-08
4.14659e-06
5.30332e-08
4.09702e-06
4.9573e-08
4.05269e-06
4.43315e-08
4.01346e-06
3.9226e-08
3.97872e-06
3.47384e-08
3.94787e-06
3.08481e-08
3.92038e-06
2.74931e-08
3.89575e-06
2.46273e-08
3.87357e-06
2.21774e-08
3.85344e-06
2.01366e-08
3.83506e-06
1.83714e-08
3.81763e-06
1.7438e-08
3.80132e-06
1.63099e-08
1.77698e-08
3.78355e-06
4.86161e-06
-7.6993e-09
4.86691e-06
4.4655e-08
4.86724e-06
5.20394e-08
4.8648e-06
5.53928e-08
4.86041e-06
5.74168e-08
4.85381e-06
5.61788e-08
4.84502e-06
5.31148e-08
4.83459e-06
4.96605e-08
4.82301e-06
4.63166e-08
4.81075e-06
4.31083e-08
4.79817e-06
4.00729e-08
4.78554e-06
3.72523e-08
4.77306e-06
3.46638e-08
4.76085e-06
3.23457e-08
4.74899e-06
3.02289e-08
4.73779e-06
2.86322e-08
4.72747e-06
2.66332e-08
2.67201e-08
4.71852e-06
5.3316e-06
-4.13269e-09
5.33994e-06
3.63117e-08
5.34707e-06
4.49093e-08
5.35376e-06
4.87035e-08
5.35932e-06
5.18535e-08
5.363e-06
5.25024e-08
5.36483e-06
5.12841e-08
5.36515e-06
4.93381e-08
5.3643e-06
4.71699e-08
5.36252e-06
4.48842e-08
5.36003e-06
4.25655e-08
5.35699e-06
4.02911e-08
5.35354e-06
3.81104e-08
5.34982e-06
3.60728e-08
5.34588e-06
3.41644e-08
5.34202e-06
3.24955e-08
5.33792e-06
3.07261e-08
2.97064e-08
5.33494e-06
5.88405e-06
2.31413e-09
5.89201e-06
2.8353e-08
5.89829e-06
3.86356e-08
5.90398e-06
4.30065e-08
5.90937e-06
4.64619e-08
5.9139e-06
4.7974e-08
5.91751e-06
4.76735e-08
5.92037e-06
4.64845e-08
5.92259e-06
4.49444e-08
5.92426e-06
4.32154e-08
5.92544e-06
4.13827e-08
5.92621e-06
3.95245e-08
5.92662e-06
3.7694e-08
5.92676e-06
3.59354e-08
5.92667e-06
3.42511e-08
5.92649e-06
3.26796e-08
5.92611e-06
3.11026e-08
2.9723e-08
5.9261e-06
6.50098e-06
4.9741e-09
6.50638e-06
2.29545e-08
6.51097e-06
3.40478e-08
6.51518e-06
3.87886e-08
6.51974e-06
4.19104e-08
6.52414e-06
4.35714e-08
6.52811e-06
4.37027e-08
6.53164e-06
4.29476e-08
6.53479e-06
4.1798e-08
6.53757e-06
4.04332e-08
6.54002e-06
3.89332e-08
6.54218e-06
3.73694e-08
6.54407e-06
3.57954e-08
6.54576e-06
3.42488e-08
6.54727e-06
3.2739e-08
6.54867e-06
3.12785e-08
6.54995e-06
2.9826e-08
2.84231e-08
6.55125e-06
7.18014e-06
5.43696e-09
7.18367e-06
1.94252e-08
7.18783e-06
2.98866e-08
7.19179e-06
3.48248e-08
7.19602e-06
3.7677e-08
7.20026e-06
3.93344e-08
7.20422e-06
3.97442e-08
7.20787e-06
3.93018e-08
7.21124e-06
3.84261e-08
7.21436e-06
3.73109e-08
7.21725e-06
3.6042e-08
7.21993e-06
3.46863e-08
7.22243e-06
3.32965e-08
7.22477e-06
3.19062e-08
7.22698e-06
3.05284e-08
7.22909e-06
2.91689e-08
7.23111e-06
2.78142e-08
2.64774e-08
7.23305e-06
7.92822e-06
5.24659e-09
7.93097e-06
1.66763e-08
7.93509e-06
2.57624e-08
7.93919e-06
3.07274e-08
7.94334e-06
3.35223e-08
7.94749e-06
3.51805e-08
7.95145e-06
3.57869e-08
7.95516e-06
3.55909e-08
7.95866e-06
3.49328e-08
7.96195e-06
3.40128e-08
7.96507e-06
3.2926e-08
7.96802e-06
3.1737e-08
7.97082e-06
3.04956e-08
7.97349e-06
2.92339e-08
7.97605e-06
2.79677e-08
7.97852e-06
2.67037e-08
7.98089e-06
2.54383e-08
2.41853e-08
7.98318e-06
8.75371e-06
4.78759e-09
8.75616e-06
1.42236e-08
8.76005e-06
2.18744e-08
8.76415e-06
2.66273e-08
8.76829e-06
2.9386e-08
8.77245e-06
3.10123e-08
8.77651e-06
3.17314e-08
8.78037e-06
3.17297e-08
8.78404e-06
3.12655e-08
8.78753e-06
3.05242e-08
8.79085e-06
2.96053e-08
8.79401e-06
2.85713e-08
8.79704e-06
2.74695e-08
8.79994e-06
2.63316e-08
8.80273e-06
2.5176e-08
8.80542e-06
2.40126e-08
8.80802e-06
2.28426e-08
2.16857e-08
8.81052e-06
9.03761e-06
4.20126e-09
9.03975e-06
1.20844e-08
9.0431e-06
1.85216e-08
9.04686e-06
2.28659e-08
9.05075e-06
2.55002e-08
9.0547e-06
2.7058e-08
9.05861e-06
2.78217e-08
9.06239e-06
2.79544e-08
9.066e-06
2.76478e-08
9.06947e-06
2.70611e-08
9.07278e-06
2.62911e-08
9.07595e-06
2.53987e-08
9.07899e-06
2.44282e-08
9.08191e-06
2.3411e-08
9.08472e-06
2.23672e-08
9.08743e-06
2.13095e-08
9.09003e-06
2.02426e-08
1.91927e-08
9.09252e-06
1.27811e-05
3.35924e-09
1.27837e-05
9.54127e-09
1.27876e-05
1.4607e-08
1.27922e-05
1.8244e-08
1.27971e-05
2.0574e-08
1.28022e-05
2.19822e-08
1.28073e-05
2.273e-08
1.28123e-05
2.29604e-08
1.28171e-05
2.28057e-08
1.28218e-05
2.23873e-08
1.28263e-05
2.17909e-08
1.28306e-05
2.10722e-08
1.28348e-05
2.0271e-08
1.28388e-05
1.94165e-08
1.28426e-05
1.8529e-08
1.28463e-05
1.76227e-08
1.28498e-05
1.67041e-08
1.58005e-08
1.28532e-05
1.80751e-05
2.30863e-09
1.8078e-05
6.60441e-09
1.80825e-05
1.01231e-08
1.8088e-05
1.27456e-08
1.80941e-05
1.45189e-08
1.81004e-05
1.5631e-08
1.81069e-05
1.62518e-08
1.81134e-05
1.64907e-08
1.81197e-05
1.64363e-08
1.8126e-05
1.61698e-08
1.8132e-05
1.5755e-08
1.81378e-05
1.52362e-08
1.81435e-05
1.46451e-08
1.81489e-05
1.40056e-08
1.81541e-05
1.3336e-08
1.8159e-05
1.26504e-08
1.81638e-05
1.19565e-08
1.12806e-08
1.81683e-05
2.55618e-05
1.10405e-09
2.55651e-05
3.25025e-09
2.55703e-05
4.98448e-09
2.55767e-05
6.27337e-09
2.55841e-05
7.17886e-09
2.55919e-05
7.7884e-09
2.56e-05
8.15988e-09
2.56082e-05
8.32811e-09
2.56163e-05
8.32596e-09
2.56243e-05
8.18944e-09
2.56321e-05
7.95216e-09
2.56397e-05
7.64145e-09
2.5647e-05
7.27849e-09
2.56541e-05
6.87978e-09
2.5661e-05
6.45815e-09
2.56676e-05
6.02411e-09
2.5674e-05
5.58339e-09
5.1606e-09
2.56801e-05
3.61495e-05
-2.66313e-10
3.61534e-05
-6.96415e-10
3.61596e-05
-1.17361e-09
3.61675e-05
-1.69688e-09
3.61769e-05
-2.16608e-09
3.61872e-05
-2.53834e-09
3.61982e-05
-2.79035e-09
3.62094e-05
-2.90909e-09
3.62206e-05
-2.92016e-09
3.62317e-05
-2.87287e-09
3.62425e-05
-2.80802e-09
3.62528e-05
-2.74728e-09
3.62628e-05
-2.69955e-09
3.62724e-05
-2.66779e-09
3.62815e-05
-2.65201e-09
3.62902e-05
-2.65005e-09
3.62984e-05
-2.6608e-09
-2.67365e-09
3.63062e-05
2.61494e-05
-1.07346e-09
2.6152e-05
-3.28277e-09
2.61567e-05
-5.9356e-09
2.61628e-05
-7.7791e-09
2.61693e-05
-8.64921e-09
2.61759e-05
-9.1665e-09
2.61827e-05
-9.61574e-09
2.61898e-05
-9.9578e-09
2.6197e-05
-1.01469e-08
2.62043e-05
-1.02007e-08
2.62117e-05
-1.01537e-08
2.6219e-05
-1.00343e-08
2.62261e-05
-9.86544e-09
2.62331e-05
-9.66663e-09
2.62399e-05
-9.45267e-09
2.62465e-05
-9.2337e-09
2.62529e-05
-9.01761e-09
-8.79771e-09
2.6259e-05
2.07547e-05
-1.60458e-09
2.07556e-05
-4.21127e-09
2.07594e-05
-9.74726e-09
2.07654e-05
-1.38079e-08
2.07726e-05
-1.58418e-08
2.07802e-05
-1.67566e-08
2.07876e-05
-1.70278e-08
2.07946e-05
-1.69048e-08
2.0801e-05
-1.65986e-08
2.0807e-05
-1.623e-08
2.08127e-05
-1.58354e-08
2.08181e-05
-1.54229e-08
2.08232e-05
-1.49992e-08
2.08282e-05
-1.45709e-08
2.08328e-05
-1.41412e-08
2.08373e-05
-1.37104e-08
2.08416e-05
-1.32782e-08
-1.28444e-08
2.08456e-05
1.64715e-05
-5.84206e-10
1.64742e-05
-6.91099e-09
1.64774e-05
-1.29585e-08
1.648e-05
-1.63318e-08
1.64834e-05
-1.9267e-08
1.64882e-05
-2.16005e-08
1.6494e-05
-2.27715e-08
1.65001e-05
-2.29911e-08
1.65062e-05
-2.27003e-08
1.65121e-05
-2.21652e-08
1.65178e-05
-2.15034e-08
1.65231e-05
-2.07807e-08
1.65282e-05
-2.00416e-08
1.65329e-05
-1.93114e-08
1.65374e-05
-1.86025e-08
1.65416e-05
-1.79193e-08
1.65456e-05
-1.72665e-08
-1.66323e-08
1.65494e-05
1.30602e-05
1.34962e-08
1.30674e-05
-1.41387e-08
1.30763e-05
-2.18683e-08
1.30829e-05
-2.28863e-08
1.30882e-05
-2.45496e-08
1.30927e-05
-2.61625e-08
1.30968e-05
-2.68862e-08
1.31008e-05
-2.69632e-08
1.31048e-05
-2.66953e-08
1.31088e-05
-2.618e-08
1.31128e-05
-2.54705e-08
1.31167e-05
-2.46385e-08
1.31204e-05
-2.37477e-08
1.31239e-05
-2.28377e-08
1.31272e-05
-2.19308e-08
1.31303e-05
-2.10305e-08
1.31332e-05
-2.01461e-08
-1.92395e-08
1.31358e-05
1.03525e-05
3.80262e-08
1.0352e-05
-1.36141e-08
1.03589e-05
-2.87138e-08
1.03699e-05
-3.39317e-08
1.03821e-05
-3.67766e-08
1.03931e-05
-3.71485e-08
1.0402e-05
-3.5764e-08
1.04089e-05
-3.38674e-08
1.04142e-05
-3.20042e-08
1.04182e-05
-3.02196e-08
1.04213e-05
-2.84955e-08
1.04235e-05
-2.68519e-08
1.0425e-05
-2.5315e-08
1.04261e-05
-2.3893e-08
1.04268e-05
-2.2591e-08
1.04271e-05
-2.13975e-08
1.04273e-05
-2.03006e-08
-1.91574e-08
1.04272e-05
8.26322e-06
1.10831e-08
8.26338e-06
-1.37727e-08
8.26477e-06
-3.01009e-08
8.26725e-06
-3.64175e-08
8.27052e-06
-4.00427e-08
8.2731e-06
-3.97249e-08
8.27396e-06
-3.6628e-08
8.2729e-06
-3.28052e-08
8.27014e-06
-2.92494e-08
8.26607e-06
-2.61425e-08
8.26103e-06
-2.3456e-08
8.25533e-06
-2.11517e-08
8.2492e-06
-1.91938e-08
8.24286e-06
-1.75452e-08
8.23645e-06
-1.61865e-08
8.23023e-06
-1.51767e-08
8.22451e-06
-1.45766e-08
-1.49822e-08
8.22033e-06
6.54822e-06
6.53445e-06
6.50435e-06
6.46793e-06
6.42789e-06
6.38816e-06
6.35154e-06
6.31873e-06
6.28948e-06
6.26334e-06
6.23988e-06
6.21873e-06
6.19954e-06
6.18199e-06
6.1658e-06
6.15063e-06
6.13605e-06
6.12107e-06
2.6741e-08
-2.6802e-08
4.50024e-08
-1.83484e-08
4.65619e-08
-1.62202e-09
3.36126e-08
1.28799e-08
1.12807e-08
2.22882e-08
-1.65432e-08
2.77707e-08
-4.8114e-08
3.15489e-08
-8.29368e-08
3.47865e-08
-1.20841e-07
3.78995e-08
-1.61887e-07
4.10089e-08
-2.06006e-07
4.41302e-08
-2.53286e-07
4.72544e-08
-3.03689e-07
5.0437e-08
-3.57088e-07
5.34495e-08
-4.13169e-07
5.61498e-08
-4.71971e-07
5.89291e-08
-5.35399e-07
6.35448e-08
-6.03852e-07
6.85657e-08
-6.77652e-07
7.39041e-08
-7.57945e-07
8.03846e-08
-8.47308e-07
8.94506e-08
-9.31455e-07
8.42332e-08
-1.01132e-06
7.99432e-08
-1.09888e-06
8.76299e-08
-1.1888e-06
8.99709e-08
-1.27858e-06
8.98318e-08
-1.36767e-06
8.91364e-08
-1.45574e-06
8.81039e-08
-1.5426e-06
8.68874e-08
-1.62814e-06
8.55634e-08
-1.7123e-06
8.41795e-08
-1.79503e-06
8.27403e-08
-1.87625e-06
8.1237e-08
-1.9559e-06
7.9649e-08
-2.03384e-06
7.79516e-08
-2.10996e-06
7.61184e-08
-2.18408e-06
7.41234e-08
-2.25602e-06
7.19433e-08
-2.32558e-06
6.95574e-08
-2.39253e-06
6.69491e-08
-2.45664e-06
6.4106e-08
-2.51767e-06
6.10192e-08
-2.57535e-06
5.76832e-08
-2.62945e-06
5.40952e-08
-2.67971e-06
5.02554e-08
-2.72588e-06
4.61648e-08
-2.76771e-06
4.18257e-08
-2.80495e-06
3.72374e-08
-2.83735e-06
3.23962e-08
-2.86464e-06
2.72883e-08
-2.88652e-06
2.18835e-08
-2.90264e-06
1.6113e-08
-2.91252e-06
9.88538e-09
-2.91578e-06
3.26246e-09
-2.91261e-06
-3.15725e-09
-2.9037e-06
-8.90412e-09
-2.88936e-06
-1.43215e-08
-2.8696e-06
-1.97435e-08
-2.8444e-06
-2.51756e-08
-2.81376e-06
-3.0611e-08
-2.7777e-06
-3.60274e-08
-2.73626e-06
-4.14044e-08
-2.6895e-06
-4.67195e-08
-2.6375e-06
-5.19507e-08
-2.58037e-06
-5.70759e-08
-2.51825e-06
-6.20707e-08
-2.45129e-06
-6.69116e-08
-2.37967e-06
-7.15705e-08
-2.30361e-06
-7.60251e-08
-2.22334e-06
-8.0246e-08
-2.13911e-06
-8.423e-08
-2.05116e-06
-8.79758e-08
-1.95979e-06
-9.14134e-08
-1.86529e-06
-9.4543e-08
-1.76788e-06
-9.7455e-08
-1.66784e-06
-1.00084e-07
-1.56551e-06
-1.02371e-07
-1.46122e-06
-1.04334e-07
-1.35528e-06
-1.05982e-07
-1.24799e-06
-1.07325e-07
-1.13966e-06
-1.08371e-07
-1.03055e-06
-1.09134e-07
-9.20954e-07
-1.09627e-07
-8.11105e-07
-1.09872e-07
-7.01234e-07
-1.09889e-07
-5.91542e-07
-1.09704e-07
-4.82205e-07
-1.09344e-07
-3.73366e-07
-1.08835e-07
-2.65156e-07
-1.08203e-07
-1.57664e-07
-1.07472e-07
-5.10371e-08
-1.06607e-07
5.45369e-08
-1.0554e-07
1.5898e-07
-1.04414e-07
2.6235e-07
-1.03327e-07
3.65091e-07
-1.02707e-07
4.66405e-07
-1.01262e-07
5.67664e-07
-1.01218e-07
6.61733e-07
-9.40084e-08
7.52682e-07
-9.08971e-08
-1.03068e-08
7.63067e-07
1.57496e-08
-4.26168e-08
1.43026e-08
-1.69745e-08
2.95541e-09
9.6764e-09
-1.59425e-08
3.17348e-08
-4.19484e-08
4.82624e-08
-7.42589e-08
6.00517e-08
-1.11717e-07
6.89874e-08
-1.53622e-07
7.66714e-08
-1.99711e-07
8.39772e-08
-2.49978e-07
9.12606e-08
-3.04514e-07
9.8659e-08
-3.63556e-07
1.06293e-07
-4.27426e-07
1.14319e-07
-4.96699e-07
1.22742e-07
-5.71953e-07
1.31459e-07
-6.53346e-07
1.40369e-07
-7.39523e-07
1.49776e-07
-8.30169e-07
1.59258e-07
-9.24226e-07
1.68003e-07
-1.01919e-06
1.75383e-07
-1.10991e-06
1.80211e-07
-1.20263e-06
1.76989e-07
-1.29434e-06
1.7169e-07
-1.37852e-06
1.71852e-07
-1.45946e-06
1.70937e-07
-1.53851e-06
1.68914e-07
-1.61571e-06
1.66364e-07
-1.69118e-06
1.63599e-07
-1.765e-06
1.60716e-07
-1.83718e-06
1.57765e-07
-1.90774e-06
1.54752e-07
-1.97665e-06
1.51654e-07
-2.04384e-06
1.48434e-07
-2.10923e-06
1.45045e-07
-2.17272e-06
1.41439e-07
-2.23416e-06
1.37567e-07
-2.29342e-06
1.33385e-07
-2.35033e-06
1.28854e-07
-2.40472e-06
1.23941e-07
-2.45639e-06
1.18622e-07
-2.50516e-06
1.12876e-07
-2.55084e-06
1.06691e-07
-2.59322e-06
1.00059e-07
-2.6321e-06
9.29794e-08
-2.6673e-06
8.54525e-08
-2.69863e-06
7.74842e-08
-2.72589e-06
6.90826e-08
-2.74891e-06
6.02564e-08
-2.76753e-06
5.10158e-08
-2.78161e-06
4.13709e-08
-2.79106e-06
3.13352e-08
-2.79589e-06
2.09357e-08
-2.79626e-06
1.02632e-08
-2.79252e-06
-4.74325e-10
-2.78457e-06
-1.11041e-08
-2.77178e-06
-2.16822e-08
-2.75377e-06
-3.23224e-08
-2.73047e-06
-4.30344e-08
-2.70184e-06
-5.37852e-08
-2.66789e-06
-6.45419e-08
-2.62864e-06
-7.52613e-08
-2.58411e-06
-8.59013e-08
-2.53439e-06
-9.64175e-08
-2.47954e-06
-1.06767e-07
-2.41968e-06
-1.16904e-07
-2.35493e-06
-1.26785e-07
-2.28545e-06
-1.36359e-07
-2.21141e-06
-1.45577e-07
-2.13303e-06
-1.54385e-07
-2.05053e-06
-1.62734e-07
-1.96416e-06
-1.70604e-07
-1.87418e-06
-1.77976e-07
-1.78087e-06
-1.84743e-07
-1.68452e-06
-1.90927e-07
-1.58536e-06
-1.96643e-07
-1.48369e-06
-2.01788e-07
-1.37982e-06
-2.06273e-07
-1.27407e-06
-2.10114e-07
-1.16675e-06
-2.1333e-07
-1.05816e-06
-2.1594e-07
-9.48589e-07
-2.17962e-07
-8.38322e-07
-2.19422e-07
-7.27614e-07
-2.20353e-07
-6.16707e-07
-2.20793e-07
-5.0582e-07
-2.20787e-07
-3.95142e-07
-2.20387e-07
-2.84837e-07
-2.19649e-07
-1.75037e-07
-2.18629e-07
-6.58487e-08
-2.17381e-07
4.26448e-08
-2.15947e-07
1.50408e-07
-2.14351e-07
2.57436e-07
-2.1254e-07
3.63725e-07
-2.10676e-07
4.6937e-07
-2.08937e-07
5.74345e-07
-2.07648e-07
6.78639e-07
-2.05513e-07
7.8131e-07
-2.03848e-07
8.81062e-07
-1.93711e-07
9.70498e-07
-1.80288e-07
-8.09965e-08
1.04124e-06
-3.43637e-09
-3.92317e-08
-1.80954e-08
-2.36124e-09
-3.8022e-08
2.95733e-08
-6.24922e-08
5.61797e-08
-9.19575e-08
7.77068e-08
-1.26813e-07
9.48879e-08
-1.66952e-07
1.09111e-07
-2.12089e-07
1.21794e-07
-2.62043e-07
1.3392e-07
-3.16816e-07
1.46023e-07
-3.76531e-07
1.58368e-07
-4.41322e-07
1.71081e-07
-5.11152e-07
1.84152e-07
-5.85739e-07
1.97344e-07
-6.64417e-07
2.10143e-07
-7.45952e-07
2.21919e-07
-8.28701e-07
2.32528e-07
-9.11378e-07
2.41933e-07
-9.92581e-07
2.49202e-07
-1.07071e-06
2.53505e-07
-1.14503e-06
2.54541e-07
-1.21935e-06
2.51316e-07
-1.29394e-06
2.46294e-07
-1.36527e-06
2.43198e-07
-1.4343e-06
2.39979e-07
-1.50177e-06
2.364e-07
-1.56801e-06
2.32622e-07
-1.63314e-06
2.28738e-07
-1.6972e-06
2.24785e-07
-1.76018e-06
2.20761e-07
-1.82206e-06
2.16637e-07
-1.88277e-06
2.12364e-07
-1.94221e-06
2.0788e-07
-2.00028e-06
2.03117e-07
-2.05685e-06
1.9801e-07
-2.11177e-06
1.92492e-07
-2.16489e-06
1.86505e-07
-2.21603e-06
1.79998e-07
-2.26502e-06
1.72927e-07
-2.31166e-06
1.65258e-07
-2.35575e-06
1.56966e-07
-2.3971e-06
1.48034e-07
-2.43549e-06
1.38454e-07
-2.47074e-06
1.28222e-07
-2.50263e-06
1.17345e-07
-2.53098e-06
1.05833e-07
-2.55561e-06
9.37024e-08
-2.57633e-06
8.0975e-08
-2.59299e-06
6.76788e-08
-2.60547e-06
5.38503e-08
-2.61368e-06
3.95383e-08
-2.61756e-06
2.48146e-08
-2.61709e-06
9.79428e-09
-2.61218e-06
-5.38269e-09
-2.6026e-06
-2.06772e-08
-2.58812e-06
-3.61566e-08
-2.56861e-06
-5.18317e-08
-2.54399e-06
-6.76423e-08
-2.51424e-06
-8.35246e-08
-2.47935e-06
-9.94183e-08
-2.43934e-06
-1.15259e-07
-2.39424e-06
-1.30982e-07
-2.34412e-06
-1.46522e-07
-2.28905e-06
-1.61815e-07
-2.22914e-06
-1.76794e-07
-2.16451e-06
-1.91394e-07
-2.0953e-06
-2.05542e-07
-2.02169e-06
-2.19165e-07
-1.94388e-06
-2.32184e-07
-1.86208e-06
-2.44523e-07
-1.77655e-06
-2.56143e-07
-1.68753e-06
-2.67001e-07
-1.59531e-06
-2.76981e-07
-1.50013e-06
-2.86113e-07
-1.40228e-06
-2.94508e-07
-1.30202e-06
-3.02058e-07
-1.19965e-06
-3.08649e-07
-1.09549e-06
-3.1429e-07
-9.89817e-07
-3.19005e-07
-8.8294e-07
-3.22823e-07
-7.75133e-07
-3.25774e-07
-6.66663e-07
-3.27897e-07
-5.5778e-07
-3.29241e-07
-4.48714e-07
-3.29862e-07
-3.39672e-07
-3.29833e-07
-2.30834e-07
-3.29228e-07
-1.22352e-07
-3.28135e-07
-1.43436e-08
-3.26639e-07
9.30964e-08
-3.24824e-07
1.99915e-07
-3.22767e-07
3.06107e-07
-3.20545e-07
4.11736e-07
-3.1817e-07
5.16872e-07
-3.15814e-07
6.21553e-07
-3.13617e-07
7.25685e-07
-3.11784e-07
8.29256e-07
-3.09084e-07
9.31315e-07
-3.05909e-07
1.03127e-06
-2.93664e-07
1.1239e-06
-2.72912e-07
-1.70284e-07
1.2132e-06
-1.90419e-08
-2.02312e-08
-4.29127e-08
2.14772e-08
-6.95181e-08
5.61573e-08
-9.90078e-08
8.56511e-08
-1.32159e-07
1.10842e-07
-1.69714e-07
1.32428e-07
-2.12023e-07
1.51406e-07
-2.59117e-07
1.68875e-07
-3.10914e-07
1.85706e-07
-3.67311e-07
2.02411e-07
-4.28139e-07
2.1919e-07
-4.9304e-07
2.35979e-07
-5.61344e-07
2.52457e-07
-6.32082e-07
2.68078e-07
-7.04096e-07
2.82159e-07
-7.76285e-07
2.94094e-07
-8.476e-07
3.03819e-07
-9.17099e-07
3.11404e-07
-9.84265e-07
3.1634e-07
-1.04907e-06
3.1829e-07
-1.1119e-06
3.17355e-07
-1.17442e-06
3.13826e-07
-1.23708e-06
3.08959e-07
-1.29845e-06
3.04571e-07
-1.35873e-06
3.0026e-07
-1.41815e-06
2.9583e-07
-1.47685e-06
2.9133e-07
-1.53488e-06
2.86768e-07
-1.59222e-06
2.82133e-07
-1.64884e-06
2.77386e-07
-1.70467e-06
2.7247e-07
-1.75961e-06
2.67315e-07
-1.81357e-06
2.6184e-07
-1.86641e-06
2.55962e-07
-1.918e-06
2.49597e-07
-1.96817e-06
2.42667e-07
-2.01677e-06
2.35101e-07
-2.0636e-06
2.26835e-07
-2.1085e-06
2.17819e-07
-2.15125e-06
2.08011e-07
-2.19167e-06
1.9738e-07
-2.22954e-06
1.85906e-07
-2.26467e-06
1.73581e-07
-2.29685e-06
1.60402e-07
-2.32589e-06
1.46379e-07
-2.35158e-06
1.31529e-07
-2.37376e-06
1.15878e-07
-2.39225e-06
9.94584e-08
-2.40688e-06
8.23149e-08
-2.41754e-06
6.45027e-08
-2.42409e-06
4.609e-08
-2.42644e-06
2.71636e-08
-2.42447e-06
7.82931e-09
-2.41804e-06
-1.18154e-08
-2.40696e-06
-3.17513e-08
-2.39112e-06
-5.19988e-08
-2.37042e-06
-7.25215e-08
-2.34483e-06
-9.32321e-08
-2.3143e-06
-1.14044e-07
-2.27883e-06
-1.34874e-07
-2.23844e-06
-1.55635e-07
-2.19317e-06
-1.76243e-07
-2.14306e-06
-1.96611e-07
-2.08821e-06
-2.16654e-07
-2.0287e-06
-2.36285e-07
-1.96465e-06
-2.55418e-07
-1.89622e-06
-2.7396e-07
-1.82355e-06
-2.91816e-07
-1.74684e-06
-3.08884e-07
-1.6663e-06
-3.25061e-07
-1.58216e-06
-3.40282e-07
-1.49469e-06
-3.54483e-07
-1.40413e-06
-3.6755e-07
-1.31075e-06
-3.7951e-07
-1.2148e-06
-3.90462e-07
-1.11657e-06
-4.00304e-07
-1.01632e-06
-4.08903e-07
-9.14366e-07
-4.16259e-07
-8.10978e-07
-4.22402e-07
-7.06443e-07
-4.27367e-07
-6.01027e-07
-4.31197e-07
-4.94987e-07
-4.33943e-07
-3.88561e-07
-4.35671e-07
-2.81968e-07
-4.36458e-07
-1.75404e-07
-4.36398e-07
-6.9038e-08
-4.35594e-07
3.69893e-08
-4.34161e-07
1.42566e-07
-4.32212e-07
2.47617e-07
-4.2987e-07
3.5211e-07
-4.27253e-07
4.56049e-07
-4.24477e-07
5.5952e-07
-4.21631e-07
6.62611e-07
-4.18896e-07
7.6536e-07
-4.16354e-07
8.67678e-07
-4.14091e-07
9.69533e-07
-4.10925e-07
1.07016e-06
-4.06526e-07
1.16929e-06
-3.92775e-07
1.26402e-06
-3.67623e-07
-2.67557e-07
1.36131e-06
-2.92489e-08
8.98279e-09
-6.04618e-08
5.26658e-08
-9.25835e-08
8.82626e-08
-1.26333e-07
1.19386e-07
-1.62661e-07
1.47156e-07
-2.0238e-07
1.72135e-07
-2.45969e-07
1.94983e-07
-2.93562e-07
2.16458e-07
-3.45054e-07
2.37188e-07
-4.00157e-07
2.57507e-07
-4.58398e-07
2.77426e-07
-5.19079e-07
2.96656e-07
-5.813e-07
3.14674e-07
-6.44067e-07
3.30843e-07
-7.06497e-07
3.44576e-07
-7.67959e-07
3.55535e-07
-8.27959e-07
3.63786e-07
-8.86091e-07
3.695e-07
-9.42377e-07
3.72593e-07
-9.97196e-07
3.73081e-07
-1.05109e-06
3.71232e-07
-1.10483e-06
3.67556e-07
-1.15873e-06
3.62853e-07
-1.21223e-06
3.58069e-07
-1.26528e-06
3.533e-07
-1.31792e-06
3.48477e-07
-1.37019e-06
3.43603e-07
-1.42208e-06
3.38655e-07
-1.47353e-06
3.33589e-07
-1.52449e-06
3.28345e-07
-1.57486e-06
3.22844e-07
-1.62454e-06
3.16999e-07
-1.67341e-06
3.10712e-07
-1.72133e-06
3.03887e-07
-1.76816e-06
2.96427e-07
-1.81374e-06
2.88242e-07
-1.85789e-06
2.79249e-07
-1.90043e-06
2.69377e-07
-1.94117e-06
2.58565e-07
-1.97993e-06
2.46767e-07
-2.0165e-06
2.33948e-07
-2.05068e-06
2.20088e-07
-2.08228e-06
2.05175e-07
-2.11109e-06
1.89212e-07
-2.13693e-06
1.7221e-07
-2.15959e-06
1.54195e-07
-2.17892e-06
1.35198e-07
-2.19473e-06
1.15266e-07
-2.20687e-06
9.4454e-08
-2.2152e-06
7.28299e-08
-2.21958e-06
5.04738e-08
-2.2199e-06
2.74771e-08
-2.21601e-06
3.93878e-09
-2.20776e-06
-2.0058e-08
-2.19503e-06
-4.4478e-08
-2.17773e-06
-6.93002e-08
-2.15579e-06
-9.44575e-08
-2.12917e-06
-1.19847e-07
-2.09784e-06
-1.45364e-07
-2.06181e-06
-1.70902e-07
-2.02107e-06
-1.96357e-07
-1.97568e-06
-2.21624e-07
-1.92568e-06
-2.46596e-07
-1.87115e-06
-2.71168e-07
-1.81219e-06
-2.95233e-07
-1.74891e-06
-3.18686e-07
-1.68144e-06
-3.41415e-07
-1.60994e-06
-3.63304e-07
-1.53458e-06
-3.84231e-07
-1.45557e-06
-4.04067e-07
-1.37314e-06
-4.22718e-07
-1.28753e-06
-4.40098e-07
-1.19898e-06
-4.56102e-07
-1.10776e-06
-4.70742e-07
-1.01411e-06
-4.84113e-07
-9.18293e-07
-4.9612e-07
-8.20586e-07
-5.06611e-07
-7.21265e-07
-5.15581e-07
-6.20602e-07
-5.23064e-07
-5.18865e-07
-5.29104e-07
-4.16309e-07
-5.33752e-07
-3.13177e-07
-5.37075e-07
-2.09695e-07
-5.39153e-07
-1.0607e-07
-5.40084e-07
-2.48532e-09
-5.39985e-07
1.009e-07
-5.38982e-07
2.03956e-07
-5.37219e-07
3.06588e-07
-5.34847e-07
4.08734e-07
-5.32021e-07
5.10371e-07
-5.28895e-07
6.11519e-07
-5.25632e-07
7.12266e-07
-5.22384e-07
8.127e-07
-5.19339e-07
9.12875e-07
-5.16537e-07
1.01273e-06
-5.13957e-07
1.11225e-06
-5.10453e-07
1.21087e-06
-5.05157e-07
1.3086e-06
-4.90509e-07
1.40405e-06
-4.63072e-07
-3.68499e-07
1.50499e-06
-3.58607e-08
4.48147e-08
-7.22627e-08
8.90485e-08
-1.08477e-07
1.24463e-07
-1.45343e-07
1.5624e-07
-1.83798e-07
1.856e-07
-2.246e-07
2.12926e-07
-2.68198e-07
2.3857e-07
-3.147e-07
2.62951e-07
-3.63923e-07
2.86402e-07
-4.1545e-07
3.09028e-07
-4.6868e-07
3.30651e-07
-5.22876e-07
3.50847e-07
-5.77255e-07
3.6905e-07
-6.31123e-07
3.84704e-07
-6.83987e-07
3.97428e-07
-7.35596e-07
4.0712e-07
-7.85808e-07
4.13968e-07
-8.34576e-07
4.18235e-07
-8.82103e-07
4.20089e-07
-9.28781e-07
4.19733e-07
-9.75069e-07
4.175e-07
-1.02139e-06
4.13865e-07
-1.06793e-06
4.09389e-07
-1.1145e-06
4.04627e-07
-1.16098e-06
3.99773e-07
-1.20734e-06
3.94839e-07
-1.25356e-06
3.8982e-07
-1.29958e-06
3.84677e-07
-1.34534e-06
3.7935e-07
-1.39075e-06
3.73758e-07
-1.43572e-06
3.67809e-07
-1.48012e-06
3.614e-07
-1.52382e-06
3.54421e-07
-1.5667e-06
3.46763e-07
-1.60859e-06
3.38318e-07
-1.64933e-06
3.28985e-07
-1.68875e-06
3.18671e-07
-1.72668e-06
3.07299e-07
-1.76291e-06
2.94801e-07
-1.79728e-06
2.81127e-07
-1.82957e-06
2.66241e-07
-1.8596e-06
2.50119e-07
-1.88718e-06
2.32753e-07
-1.91212e-06
2.14147e-07
-1.93423e-06
1.94319e-07
-1.95334e-06
1.73297e-07
-1.96926e-06
1.51123e-07
-1.98185e-06
1.27851e-07
-1.99094e-06
1.03547e-07
-1.9964e-06
7.82893e-08
-1.9981e-06
5.21651e-08
-1.99589e-06
2.52698e-08
-1.98965e-06
-2.2973e-09
-1.97926e-06
-3.04528e-08
-1.9646e-06
-5.91381e-08
-1.94559e-06
-8.8299e-08
-1.9222e-06
-1.17845e-07
-1.89438e-06
-1.47661e-07
-1.86212e-06
-1.77623e-07
-1.8254e-06
-2.0761e-07
-1.78425e-06
-2.37499e-07
-1.7387e-06
-2.67164e-07
-1.6888e-06
-2.96482e-07
-1.63463e-06
-3.25327e-07
-1.57627e-06
-3.53574e-07
-1.51384e-06
-3.811e-07
-1.44747e-06
-4.07774e-07
-1.3773e-06
-4.33465e-07
-1.30349e-06
-4.58029e-07
-1.22624e-06
-4.81315e-07
-1.14576e-06
-5.03197e-07
-1.0623e-06
-5.23573e-07
-9.76069e-07
-5.42336e-07
-8.87334e-07
-5.59483e-07
-7.96334e-07
-5.75119e-07
-7.03315e-07
-5.89143e-07
-6.0854e-07
-6.0139e-07
-5.12269e-07
-6.11855e-07
-4.1476e-07
-6.20575e-07
-3.16267e-07
-6.27599e-07
-2.17029e-07
-6.32991e-07
-1.17277e-07
-6.36828e-07
-1.722e-08
-6.39209e-07
8.2947e-08
-6.4025e-07
1.83053e-07
-6.40089e-07
2.82953e-07
-6.38881e-07
3.82534e-07
-6.36798e-07
4.81712e-07
-6.34022e-07
5.80437e-07
-6.30743e-07
6.78698e-07
-6.27153e-07
7.76527e-07
-6.23457e-07
8.74008e-07
-6.19862e-07
9.71234e-07
-6.16562e-07
1.06828e-06
-6.13575e-07
1.16511e-06
-6.10793e-07
1.26177e-06
-6.07102e-07
1.35786e-06
-6.01245e-07
1.45364e-06
-5.8629e-07
1.54866e-06
-5.58078e-07
-4.70583e-07
1.65075e-06
-3.9844e-08
8.46344e-08
-7.9428e-08
1.28617e-07
-1.1819e-07
1.63214e-07
-1.56841e-07
1.94881e-07
-1.96169e-07
2.24918e-07
-2.36804e-07
2.53552e-07
-2.79103e-07
2.8086e-07
-3.23112e-07
3.06952e-07
-3.68602e-07
3.31885e-07
-4.15136e-07
3.55557e-07
-4.62155e-07
3.77665e-07
-5.09066e-07
3.97755e-07
-5.55347e-07
4.15326e-07
-6.00624e-07
4.29975e-07
-6.44716e-07
4.41509e-07
-6.87607e-07
4.49992e-07
-7.29356e-07
4.55693e-07
-7.70087e-07
4.58939e-07
-8.1004e-07
4.60017e-07
-8.49548e-07
4.5922e-07
-8.8895e-07
4.56888e-07
-9.28516e-07
4.5342e-07
-9.68364e-07
4.49231e-07
-1.00842e-06
4.44681e-07
-1.04861e-06
4.3995e-07
-1.08885e-06
4.35078e-07
-1.12909e-06
4.30057e-07
-1.16925e-06
4.24838e-07
-1.20925e-06
4.1935e-07
-1.249e-06
4.13501e-07
-1.28837e-06
4.07183e-07
-1.32726e-06
4.00283e-07
-1.36551e-06
3.92681e-07
-1.403e-06
3.84255e-07
-1.43957e-06
3.74889e-07
-1.47506e-06
3.64472e-07
-1.5093e-06
3.52905e-07
-1.5421e-06
3.40104e-07
-1.5733e-06
3.25999e-07
-1.60271e-06
3.10537e-07
-1.63015e-06
2.93679e-07
-1.65544e-06
2.75404e-07
-1.67839e-06
2.55705e-07
-1.69884e-06
2.34589e-07
-1.7166e-06
2.12079e-07
-1.73152e-06
1.8821e-07
-1.74343e-06
1.6303e-07
-1.75218e-06
1.36602e-07
-1.75763e-06
1.08999e-07
-1.75965e-06
8.03069e-08
-1.75811e-06
5.06212e-08
-1.75288e-06
2.00427e-08
-1.74385e-06
-1.13261e-08
-1.73091e-06
-4.33934e-08
-1.71397e-06
-7.6079e-08
-1.69297e-06
-1.09301e-07
-1.66786e-06
-1.42951e-07
-1.63861e-06
-1.769e-07
-1.60522e-06
-2.11011e-07
-1.56768e-06
-2.45147e-07
-1.526e-06
-2.79169e-07
-1.48022e-06
-3.12933e-07
-1.43039e-06
-3.46298e-07
-1.37658e-06
-3.79122e-07
-1.31888e-06
-4.11262e-07
-1.25739e-06
-4.42576e-07
-1.19223e-06
-4.72919e-07
-1.12355e-06
-5.02141e-07
-1.05148e-06
-5.30085e-07
-9.76222e-07
-5.56576e-07
-8.9796e-07
-5.8146e-07
-8.16918e-07
-6.04618e-07
-7.33327e-07
-6.25929e-07
-6.47424e-07
-6.45386e-07
-5.59435e-07
-6.63107e-07
-4.69598e-07
-6.78978e-07
-3.78161e-07
-6.92825e-07
-2.85366e-07
-7.04647e-07
-1.91456e-07
-7.14482e-07
-9.66648e-08
-7.22388e-07
-1.21788e-09
-7.28436e-07
9.46718e-08
-7.32716e-07
1.90807e-07
-7.35344e-07
2.87011e-07
-7.36455e-07
3.83129e-07
-7.36209e-07
4.79033e-07
-7.34787e-07
5.74621e-07
-7.3239e-07
6.69822e-07
-7.29228e-07
7.646e-07
-7.25528e-07
8.58958e-07
-7.21518e-07
9.52934e-07
-7.17442e-07
1.04662e-06
-7.13553e-07
1.1401e-06
-7.10055e-07
1.23348e-06
-7.06963e-07
1.32677e-06
-7.041e-07
1.42005e-06
-7.00394e-07
1.51311e-06
-6.94312e-07
1.60641e-06
-6.79603e-07
1.70003e-06
-6.51709e-07
-5.72134e-07
1.80158e-06
-4.1666e-08
1.2628e-07
-8.27719e-08
1.69709e-07
-1.2262e-07
2.03053e-07
-1.61731e-07
2.33982e-07
-2.00696e-07
2.63875e-07
-2.39989e-07
2.92836e-07
-2.79864e-07
3.20727e-07
-3.20325e-07
3.47405e-07
-3.61151e-07
3.72706e-07
-4.01977e-07
3.96378e-07
-4.42383e-07
4.18067e-07
-4.81982e-07
4.37351e-07
-5.20504e-07
4.53844e-07
-5.57826e-07
4.67291e-07
-5.93972e-07
4.77646e-07
-6.29063e-07
4.8507e-07
-6.63262e-07
4.89874e-07
-6.96759e-07
4.92416e-07
-7.29791e-07
4.93032e-07
-7.62626e-07
4.9204e-07
-7.95514e-07
4.89764e-07
-8.28638e-07
4.86536e-07
-8.62078e-07
4.82665e-07
-8.95808e-07
4.78405e-07
-9.29759e-07
4.73895e-07
-9.63857e-07
4.69171e-07
-9.98023e-07
4.64217e-07
-1.03217e-06
4.58978e-07
-1.06619e-06
4.53372e-07
-1.09999e-06
4.47297e-07
-1.13344e-06
4.40636e-07
-1.16643e-06
4.33265e-07
-1.1988e-06
4.25058e-07
-1.23043e-06
4.15883e-07
-1.26116e-06
4.05616e-07
-1.29083e-06
3.94141e-07
-1.31927e-06
3.81352e-07
-1.34633e-06
3.67163e-07
-1.37184e-06
3.51502e-07
-1.39562e-06
3.34315e-07
-1.41751e-06
3.15566e-07
-1.43734e-06
2.95234e-07
-1.45495e-06
2.73316e-07
-1.47019e-06
2.49823e-07
-1.48289e-06
2.24783e-07
-1.49292e-06
1.98236e-07
-1.50013e-06
1.70237e-07
-1.50439e-06
1.40856e-07
-1.50556e-06
1.10172e-07
-1.50354e-06
7.828e-08
-1.4982e-06
4.52797e-08
-1.48943e-06
1.12792e-08
-1.47715e-06
-2.3614e-08
-1.46124e-06
-5.92968e-08
-1.44165e-06
-9.56706e-08
-1.41832e-06
-1.32631e-07
-1.39121e-06
-1.70055e-07
-1.3603e-06
-2.078e-07
-1.32559e-06
-2.45719e-07
-1.28707e-06
-2.8366e-07
-1.24476e-06
-3.2147e-07
-1.19869e-06
-3.5899e-07
-1.14891e-06
-3.96063e-07
-1.0955e-06
-4.32529e-07
-1.03851e-06
-4.6823e-07
-9.78068e-07
-5.03009e-07
-9.14271e-07
-5.36704e-07
-8.47252e-07
-5.69152e-07
-7.77151e-07
-6.00181e-07
-7.04127e-07
-6.296e-07
-6.28362e-07
-6.57227e-07
-5.5006e-07
-6.82924e-07
-4.69447e-07
-7.06546e-07
-3.86742e-07
-7.28093e-07
-3.02155e-07
-7.47695e-07
-2.15913e-07
-7.65221e-07
-1.28246e-07
-7.80492e-07
-3.93782e-08
-7.93514e-07
5.04684e-08
-8.04328e-07
1.41076e-07
-8.12993e-07
2.32237e-07
-8.19594e-07
3.23757e-07
-8.24234e-07
4.15458e-07
-8.27042e-07
5.0718e-07
-8.28175e-07
5.98787e-07
-8.27814e-07
6.90164e-07
-8.26162e-07
7.81226e-07
-8.23449e-07
8.71916e-07
-8.19917e-07
9.62211e-07
-8.15822e-07
1.05213e-06
-8.11433e-07
1.14171e-06
-8.07029e-07
1.23106e-06
-8.029e-07
1.32027e-06
-7.99269e-07
1.40947e-06
-7.96158e-07
1.49871e-06
-7.93342e-07
1.58812e-06
-7.89808e-07
1.67763e-06
-7.83831e-07
1.76791e-06
-7.69876e-07
1.85931e-06
-7.4311e-07
-6.7188e-07
1.95906e-06
-4.18445e-08
1.68106e-07
-8.30154e-08
2.10868e-07
-1.22645e-07
2.42674e-07
-1.61023e-07
2.72353e-07
-1.98538e-07
3.01382e-07
-2.35505e-07
3.29797e-07
-2.72095e-07
3.5731e-07
-3.08295e-07
3.836e-07
-3.43943e-07
4.08348e-07
-3.7879e-07
4.31222e-07
-4.12586e-07
4.51859e-07
-4.45142e-07
4.69904e-07
-4.76383e-07
4.85081e-07
-5.06357e-07
4.97261e-07
-5.35211e-07
5.06494e-07
-5.63148e-07
5.12996e-07
-5.90379e-07
5.17093e-07
-6.17119e-07
5.19142e-07
-6.43586e-07
5.19487e-07
-6.69996e-07
5.1844e-07
-6.96537e-07
5.16297e-07
-7.23335e-07
5.13328e-07
-7.50444e-07
5.09769e-07
-7.77847e-07
5.05802e-07
-8.05485e-07
5.01527e-07