# Forces     
# CofR       : (5.000000e-01 0.000000e+00 0.000000e+00)
# Time       forces(pressure viscous porous)	moments(pressure viscous porous)
1            	((-5.991166e-04 -4.844705e-03 1.898434e-22) (3.768245e-06 -2.100584e-07 4.203287e-23) (0.000000e+00 0.000000e+00 0.000000e+00)) ((-6.881951e-24 7.547691e-23 1.983315e-03) (-8.321589e-25 9.790534e-24 1.692540e-07) (0.000000e+00 0.000000e+00 0.000000e+00))
2            	((-1.126656e-04 -9.619926e-04 4.365858e-23) (4.314716e-06 1.528133e-07 -7.864736e-23) (0.000000e+00 0.000000e+00 0.000000e+00)) ((-1.558239e-24 1.712450e-23 3.909285e-04) (1.553929e-24 -1.825154e-23 6.210411e-08) (0.000000e+00 0.000000e+00 0.000000e+00))
3            	((-1.747520e-05 -2.135099e-04 2.030313e-23) (1.969240e-06 3.170277e-07 -1.492933e-23) (0.000000e+00 0.000000e+00 0.000000e+00)) ((-5.890817e-25 6.669586e-24 8.437507e-05) (2.940619e-25 -3.511972e-24 -4.945627e-08) (0.000000e+00 0.000000e+00 0.000000e+00))
4            	((1.322616e-05 1.161111e-05 4.161285e-24) (1.618112e-06 5.792978e-08 -4.611189e-24) (0.000000e+00 0.000000e+00 0.000000e+00)) ((-1.314532e-25 1.469276e-24 -8.608278e-06) (8.659508e-26 -1.030066e-24 4.468009e-09) (0.000000e+00 0.000000e+00 0.000000e+00))
5            	((9.349684e-06 -1.324120e-05 1.887308e-24) (1.977938e-06 5.077097e-08 4.874043e-25) (0.000000e+00 0.000000e+00 0.000000e+00)) ((-1.017388e-25 1.068425e-24 1.636673e-06) (-1.251873e-26 1.409771e-25 1.537273e-08) (0.000000e+00 0.000000e+00 0.000000e+00))
6            	((-1.813257e-06 -8.178204e-05 3.116548e-24) (2.245866e-06 6.029338e-08 1.383725e-24) (0.000000e+00 0.000000e+00 0.000000e+00)) ((-1.531183e-25 1.622227e-24 3.074994e-05) (-2.884025e-26 3.336508e-25 1.970000e-08) (0.000000e+00 0.000000e+00 0.000000e+00))
7            	((-4.735563e-06 -9.441007e-05 4.396912e-24) (2.352051e-06 7.328303e-08 7.223200e-25) (0.000000e+00 0.000000e+00 0.000000e+00)) ((-1.773656e-25 1.919676e-24 3.657798e-05) (-1.442908e-26 1.702997e-25 1.879851e-08) (0.000000e+00 0.000000e+00 0.000000e+00))
8            	((-5.004739e-06 -9.529409e-05 4.381220e-24) (2.418057e-06 8.318352e-08 6.677100e-25) (0.000000e+00 0.000000e+00 0.000000e+00)) ((-1.768287e-25 1.913742e-24 3.702006e-05) (-1.397778e-26 1.652429e-25 1.657091e-08) (0.000000e+00 0.000000e+00 0.000000e+00))
9            	((-4.782051e-06 -9.375465e-05 4.108369e-24) (2.457865e-06 8.859021e-08 7.096777e-25) (0.000000e+00 0.000000e+00 0.000000e+00)) ((-1.713053e-25 1.846954e-24 3.639139e-05) (-1.498003e-26 1.774767e-25 1.512705e-08) (0.000000e+00 0.000000e+00 0.000000e+00))
10           	((-3.988069e-06 -8.827374e-05 3.927319e-24) (2.470999e-06 9.297102e-08 6.364800e-25) (0.000000e+00 0.000000e+00 0.000000e+00)) ((-1.654925e-25 1.782137e-24 3.411279e-05) (-1.343538e-26 1.597911e-25 1.331511e-08) (0.000000e+00 0.000000e+00 0.000000e+00))
11           	((-2.853870e-06 -8.155080e-05 3.908082e-24) (2.465393e-06 9.751930e-08 6.218154e-25) (0.000000e+00 0.000000e+00 0.000000e+00)) ((-1.623823e-25 1.751456e-24 3.126694e-05) (-1.307815e-26 1.559486e-25 1.092482e-08) (0.000000e+00 0.000000e+00 0.000000e+00))
12           	((-2.850160e-06 -8.174104e-05 3.862617e-24) (2.465391e-06 1.022094e-07 7.265912e-25) (0.000000e+00 0.000000e+00 0.000000e+00)) ((-1.620123e-25 1.745581e-24 3.131723e-05) (-1.528608e-26 1.810439e-25 8.544127e-09) (0.000000e+00 0.000000e+00 0.000000e+00))
13           	((-2.774493e-06 -8.186199e-05 3.858584e-24) (2.458230e-06 1.045537e-07 6.994924e-25) (0.000000e+00 0.000000e+00 0.000000e+00)) ((-1.620281e-25 1.745524e-24 3.134482e-05) (-1.474951e-26 1.744688e-25 7.224040e-09) (0.000000e+00 0.000000e+00 0.000000e+00))
14           	((-2.652152e-06 -8.066658e-05 3.906394e-24) (2.447502e-06 1.075549e-07 6.513609e-25) (0.000000e+00 0.000000e+00 0.000000e+00)) ((-1.616802e-25 1.744668e-24 3.087717e-05) (-1.369663e-26 1.621523e-25 5.546424e-09) (0.000000e+00 0.000000e+00 0.000000e+00))
15           	((-2.496958e-06 -7.937208e-05 3.842462e-24) (2.434429e-06 1.098006e-07 6.747862e-25) (0.000000e+00 0.000000e+00 0.000000e+00)) ((-1.595703e-25 1.721233e-24 3.034704e-05) (-1.423057e-26 1.684984e-25 4.145353e-09) (0.000000e+00 0.000000e+00 0.000000e+00))
16           	((-2.292246e-06 -7.787408e-05 3.761266e-24) (2.419590e-06 1.115264e-07 6.792495e-25) (0.000000e+00 0.000000e+00 0.000000e+00)) ((-1.572128e-25 1.694543e-24 2.971959e-05) (-1.434061e-26 1.698400e-25 2.937144e-09) (0.000000e+00 0.000000e+00 0.000000e+00))
17           	((-2.076653e-06 -7.634552e-05 3.717798e-24) (2.403398e-06 1.129178e-07 6.736666e-25) (0.000000e+00 0.000000e+00 0.000000e+00)) ((-1.555105e-25 1.676054e-24 2.907761e-05) (-1.420938e-26 1.682977e-25 1.860213e-09) (0.000000e+00 0.000000e+00 0.000000e+00))
18           	((-1.877813e-06 -7.495995e-05 3.698906e-24) (2.386686e-06 1.139565e-07 6.742822e-25) (0.000000e+00 0.000000e+00 0.000000e+00)) ((-1.543640e-25 1.664137e-24 2.849345e-05) (-1.421205e-26 1.683300e-25 9.439809e-10) (0.000000e+00 0.000000e+00 0.000000e+00))
19           	((-1.695538e-06 -7.375045e-05 3.666445e-24) (2.369717e-06 1.146773e-07 6.830431e-25) (0.000000e+00 0.000000e+00 0.000000e+00)) ((-1.531478e-25 1.650854e-24 2.797656e-05) (-1.439777e-26 1.705195e-25 1.734414e-10) (0.000000e+00 0.000000e+00 0.000000e+00))
20           	((-1.517455e-06 -7.255807e-05 3.624375e-24) (2.352435e-06 1.151064e-07 6.843855e-25) (0.000000e+00 0.000000e+00 0.000000e+00)) ((-1.517556e-25 1.635396e-24 2.746613e-05) (-1.443125e-26 1.708918e-25 -4.629949e-10) (0.000000e+00 0.000000e+00 0.000000e+00))
21           	((-1.346572e-06 -7.139278e-05 3.588682e-24) (2.335208e-06 1.152767e-07 6.853985e-25) (0.000000e+00 0.000000e+00 0.000000e+00)) ((-1.505061e-25 1.621629e-24 2.696698e-05) (-1.445073e-26 1.711237e-25 -9.719549e-10) (0.000000e+00 0.000000e+00 0.000000e+00))
22           	((-1.183221e-06 -7.028384e-05 3.553845e-24) (2.317811e-06 1.152160e-07 6.890970e-25) (0.000000e+00 0.000000e+00 0.000000e+00)) ((-1.493369e-25 1.608673e-24 2.648957e-05) (-1.452848e-26 1.720408e-25 -1.373420e-09) (0.000000e+00 0.000000e+00 0.000000e+00))
23           	((-1.017449e-06 -6.916054e-05 3.530218e-24) (2.300200e-06 1.149462e-07 6.883882e-25) (0.000000e+00 0.000000e+00 0.000000e+00)) ((-1.484051e-25 1.598560e-24 2.600483e-05) (-1.450896e-26 1.718249e-25 -1.679946e-09) (0.000000e+00 0.000000e+00 0.000000e+00))
24           	((-9.346988e-07 -6.826488e-05 3.543051e-24) (2.284133e-06 1.145813e-07 6.801527e-25) (0.000000e+00 0.000000e+00 0.000000e+00)) ((-1.479317e-25 1.594703e-24 2.563759e-05) (-1.431345e-26 1.694285e-25 -1.895899e-09) (0.000000e+00 0.000000e+00 0.000000e+00))
25           	((-8.388203e-07 -6.781054e-05 3.440009e-24) (2.268507e-06 1.138753e-07 7.257543e-25) (0.000000e+00 0.000000e+00 0.000000e+00)) ((-1.461780e-25 1.572653e-24 2.541182e-05) (-1.532713e-26 1.813798e-25 -1.959543e-09) (0.000000e+00 0.000000e+00 0.000000e+00))
26           	((-6.030114e-07 -6.620347e-05 3.427575e-24) (2.250454e-06 1.130136e-07 6.856209e-25) (0.000000e+00 0.000000e+00 0.000000e+00)) ((-1.451651e-25 1.562343e-24 2.472653e-05) (-1.446150e-26 1.712823e-25 -1.981185e-09) (0.000000e+00 0.000000e+00 0.000000e+00))
27           	((-5.269191e-07 -6.561318e-05 3.421577e-24) (2.235032e-06 1.122290e-07 7.071704e-25) (0.000000e+00 0.000000e+00 0.000000e+00)) ((-1.448232e-25 1.558770e-24 2.446621e-05) (-1.490080e-26 1.763101e-25 -1.986524e-09) (0.000000e+00 0.000000e+00 0.000000e+00))
28           	((-4.228920e-07 -6.485611e-05 3.409524e-24) (2.219142e-06 1.112316e-07 7.071381e-25) (0.000000e+00 0.000000e+00 0.000000e+00)) ((-1.443034e-25 1.553187e-24 2.413519e-05) (-1.490595e-26 1.763874e-25 -1.901869e-09) (0.000000e+00 0.000000e+00 0.000000e+00))
29           	((-2.401025e-07 -6.351040e-05 3.361267e-24) (2.202179e-06 1.101360e-07 6.994402e-25) (0.000000e+00 0.000000e+00 0.000000e+00)) ((-1.427740e-25 1.536100e-24 2.356139e-05) (-1.476965e-26 1.748460e-25 -1.788213e-09) (0.000000e+00 0.000000e+00 0.000000e+00))
30           	((-1.845718e-07 -6.299368e-05 3.366028e-24) (2.187731e-06 1.090424e-07 7.110315e-25) (0.000000e+00 0.000000e+00 0.000000e+00)) ((-1.426290e-25 1.534962e-24 2.333672e-05) (-1.498736e-26 1.773144e-25 -1.630418e-09) (0.000000e+00 0.000000e+00 0.000000e+00))
31           	((-9.220579e-08 -6.225660e-05 3.342490e-24) (2.172868e-06 1.078318e-07 7.144144e-25) (0.000000e+00 0.000000e+00 0.000000e+00)) ((-1.419038e-25 1.526827e-24 2.301666e-05) (-1.507496e-26 1.784000e-25 -1.423697e-09) (0.000000e+00 0.000000e+00 0.000000e+00))
32           	((5.535196e-09 -6.149766e-05 3.331428e-24) (2.158081e-06 1.065849e-07 7.160247e-25) (0.000000e+00 0.000000e+00 0.000000e+00)) ((-1.413983e-25 1.521431e-24 2.268758e-05) (-1.510866e-26 1.788322e-25 -1.195652e-09) (0.000000e+00 0.000000e+00 0.000000e+00))
33           	((1.001937e-07 -6.075701e-05 3.325424e-24) (2.143703e-06 1.053013e-07 7.189890e-25) (0.000000e+00 0.000000e+00 0.000000e+00)) ((-1.409901e-25 1.517225e-24 2.236686e-05) (-1.517293e-26 1.796140e-25 -9.424578e-10) (0.000000e+00 0.000000e+00 0.000000e+00))
34           	((1.872722e-07 -6.005874e-05 3.321719e-24) (2.129639e-06 1.039866e-07 7.231360e-25) (0.000000e+00 0.000000e+00 0.000000e+00)) ((-1.406388e-25 1.513681e-24 2.206477e-05) (-1.526186e-26 1.806911e-25 -6.680133e-10) (0.000000e+00 0.000000e+00 0.000000e+00))
35           	((2.663560e-07 -5.940466e-05 3.319915e-24) (2.115919e-06 1.026602e-07 7.271588e-25) (0.000000e+00 0.000000e+00 0.000000e+00)) ((-1.403453e-25 1.510786e-24 2.178201e-05) (-1.534657e-26 1.817218e-25 -3.806410e-10) (0.000000e+00 0.000000e+00 0.000000e+00))
36           	((3.287716e-07 -5.882918e-05 3.328214e-24) (2.102811e-06 1.013218e-07 7.292887e-25) (0.000000e+00 0.000000e+00 0.000000e+00)) ((-1.402437e-25 1.510245e-24 2.153505e-05) (-1.538760e-26 1.822265e-25 -7.369250e-11) (0.000000e+00 0.000000e+00 0.000000e+00))
37           	((3.941361e-07 -5.826007e-05 3.326513e-24) (2.089976e-06 9.996273e-08 7.363088e-25) (0.000000e+00 0.000000e+00 0.000000e+00)) ((-1.400097e-25 1.507923e-24 2.128838e-05) (-1.553711e-26 1.840396e-25 2.479116e-10) (0.000000e+00 0.000000e+00 0.000000e+00))
38           	((4.603267e-07 -5.767853e-05 3.324555e-24) (2.077244e-06 9.859645e-08 7.405105e-25) (0.000000e+00 0.000000e+00 0.000000e+00)) ((-1.397523e-25 1.505365e-24 2.103740e-05) (-1.562744e-26 1.851456e-25 5.738391e-10) (0.000000e+00 0.000000e+00 0.000000e+00))
39           	((5.239102e-07 -5.711039e-05 3.324454e-24) (2.064758e-06 9.722169e-08 7.449410e-25) (0.000000e+00 0.000000e+00 0.000000e+00)) ((-1.395364e-25 1.503299e-24 2.079256e-05) (-1.571982e-26 1.862727e-25 9.087535e-10) (0.000000e+00 0.000000e+00 0.000000e+00))
40           	((5.837328e-07 -5.656719e-05 3.326438e-24) (2.052573e-06 9.584659e-08 7.497079e-25) (0.000000e+00 0.000000e+00 0.000000e+00)) ((-1.393742e-25 1.501853e-24 2.055851e-05) (-1.581695e-26 1.874599e-25 1.249421e-09) (0.000000e+00 0.000000e+00 0.000000e+00))
41           	((6.359428e-07 -5.606945e-05 3.328473e-24) (2.040670e-06 9.446747e-08 7.555164e-25) (0.000000e+00 0.000000e+00 0.000000e+00)) ((-1.392280e-25 1.500562e-24 2.034416e-05) (-1.593927e-26 1.889337e-25 1.598003e-09) (0.000000e+00 0.000000e+00 0.000000e+00))
42           	((6.719720e-07 -5.575239e-05 3.339704e-24) (2.029185e-06 9.308235e-08 7.681917e-25) (0.000000e+00 0.000000e+00 0.000000e+00)) ((-1.394261e-25 1.503032e-24 2.020056e-05) (-1.619412e-26 1.919949e-25 1.955062e-09) (0.000000e+00 0.000000e+00 0.000000e+00))
43           	((7.344029e-07 -5.508367e-05 3.336138e-24) (2.017394e-06 9.175133e-08 7.532179e-25) (0.000000e+00 0.000000e+00 0.000000e+00)) ((-1.389584e-25 1.498384e-24 1.992293e-05) (-1.588288e-26 1.883423e-25 2.287439e-09) (0.000000e+00 0.000000e+00 0.000000e+00))
44           	((7.674114e-07 -5.477914e-05 3.340774e-24) (2.006301e-06 9.038229e-08 7.785231e-25) (0.000000e+00 0.000000e+00 0.000000e+00)) ((-1.390354e-25 1.499358e-24 1.978538e-05) (-1.640677e-26 1.945869e-25 2.642037e-09) (0.000000e+00 0.000000e+00 0.000000e+00))
45           	((8.227712e-07 -5.416978e-05 3.337928e-24) (1.994919e-06 8.905068e-08 7.669233e-25) (0.000000e+00 0.000000e+00 0.000000e+00)) ((-1.386302e-25 1.495343e-24 1.953204e-05) (-1.617077e-26 1.918150e-25 2.976978e-09) (0.000000e+00 0.000000e+00 0.000000e+00))
46           	((8.620922e-07 -5.375986e-05 3.337282e-24) (1.983900e-06 8.771194e-08 7.820074e-25) (0.000000e+00 0.000000e+00 0.000000e+00)) ((-1.384829e-25 1.493904e-24 1.935541e-05) (-1.647948e-26 1.955150e-25 3.317959e-09) (0.000000e+00 0.000000e+00 0.000000e+00))
47           	((8.964602e-07 -5.339086e-05 3.342295e-24) (1.973146e-06 8.638093e-08 7.886240e-25) (0.000000e+00 0.000000e+00 0.000000e+00)) ((-1.384669e-25 1.494009e-24 1.919591e-05) (-1.661624e-26 1.971642e-25 3.658499e-09) (0.000000e+00 0.000000e+00 0.000000e+00))
48           	((9.292285e-07 -5.302357e-05 3.347410e-24) (1.962562e-06 8.507872e-08 7.939495e-25) (0.000000e+00 0.000000e+00 0.000000e+00)) ((-1.384377e-25 1.493995e-24 1.903816e-05) (-1.672603e-26 1.985010e-25 3.991813e-09) (0.000000e+00 0.000000e+00 0.000000e+00))
49           	((9.615607e-07 -5.264936e-05 3.351123e-24) (1.952115e-06 8.379882e-08 8.005811e-25) (0.000000e+00 0.000000e+00 0.000000e+00)) ((-1.383661e-25 1.493503e-24 1.887847e-05) (-1.687019e-26 2.002353e-25 4.317657e-09) (0.000000e+00 0.000000e+00 0.000000e+00))
50           	((9.931322e-07 -5.227493e-05 3.352457e-24) (1.941671e-06 8.252938e-08 8.043923e-25) (0.000000e+00 0.000000e+00 0.000000e+00)) ((-1.382378e-25 1.492347e-24 1.871928e-05) (-1.694223e-26 2.011355e-25 4.636047e-09) (0.000000e+00 0.000000e+00 0.000000e+00))
51           	((1.023758e-06 -5.190470e-05 3.353567e-24) (1.931369e-06 8.127768e-08 8.110063e-25) (0.000000e+00 0.000000e+00 0.000000e+00)) ((-1.381078e-25 1.491163e-24 1.856221e-05) (-1.708295e-26 2.028333e-25 4.947294e-09) (0.000000e+00 0.000000e+00 0.000000e+00))
52           	((1.053587e-06 -5.153797e-05 3.353601e-24) (1.921125e-06 8.003853e-08 8.144677e-25) (0.000000e+00 0.000000e+00 0.000000e+00)) ((-1.379529e-25 1.489686e-24 1.840693e-05) (-1.714486e-26 2.036168e-25 5.251761e-09) (0.000000e+00 0.000000e+00 0.000000e+00))
53           	((1.081825e-06 -5.118262e-05 3.353440e-24) (1.911075e-06 7.882341e-08 8.200504e-25) (0.000000e+00 0.000000e+00 0.000000e+00)) ((-1.378000e-25 1.488218e-24 1.825660e-05) (-1.725876e-26 2.050032e-25 5.547899e-09) (0.000000e+00 0.000000e+00 0.000000e+00))
54           	((1.108532e-06 -5.083739e-05 3.352260e-24) (1.901100e-06 7.762556e-08 8.272289e-25) (0.000000e+00 0.000000e+00 0.000000e+00)) ((-1.376255e-25 1.486492e-24 1.811076e-05) (-1.741205e-26 2.068479e-25 5.836252e-09) (0.000000e+00 0.000000e+00 0.000000e+00))
55           	((1.135348e-06 -5.049430e-05 3.352513e-24) (1.891286e-06 7.646146e-08 8.313421e-25) (0.000000e+00 0.000000e+00 0.000000e+00)) ((-1.374817e-25 1.485132e-24 1.796604e-05) (-1.749518e-26 2.078661e-25 6.110621e-09) (0.000000e+00 0.000000e+00 0.000000e+00))
56           	((1.160366e-06 -5.016621e-05 3.351175e-24) (1.881666e-06 7.532231e-08 8.355514e-25) (0.000000e+00 0.000000e+00 0.000000e+00)) ((-1.373137e-25 1.483460e-24 1.782765e-05) (-1.757577e-26 2.088625e-25 6.377386e-09) (0.000000e+00 0.000000e+00 0.000000e+00))
57           	((1.184030e-06 -4.984827e-05 3.349509e-24) (1.872239e-06 7.420891e-08 8.426221e-25) (0.000000e+00 0.000000e+00 0.000000e+00)) ((-1.371434e-25 1.481748e-24 1.769365e-05) (-1.772651e-26 2.106765e-25 6.636347e-09) (0.000000e+00 0.000000e+00 0.000000e+00))
58           	((1.206566e-06 -4.953897e-05 3.347142e-24) (1.862872e-06 7.311669e-08 8.487853e-25) (0.000000e+00 0.000000e+00 0.000000e+00)) ((-1.369596e-25 1.479872e-24 1.756338e-05) (-1.785646e-26 2.122469e-25 6.885432e-09) (0.000000e+00 0.000000e+00 0.000000e+00))
59           	((1.228325e-06 -4.923647e-05 3.345228e-24) (1.853590e-06 7.204959e-08 8.533409e-25) (0.000000e+00 0.000000e+00 0.000000e+00)) ((-1.367885e-25 1.478140e-24 1.743607e-05) (-1.794871e-26 2.133761e-25 7.123770e-09) (0.000000e+00 0.000000e+00 0.000000e+00))
60           	((1.249494e-06 -4.893853e-05 3.342444e-24) (1.844370e-06 7.100339e-08 8.599787e-25) (0.000000e+00 0.000000e+00 0.000000e+00)) ((-1.365979e-25 1.476177e-24 1.731084e-05) (-1.809033e-26 2.150841e-25 7.352031e-09) (0.000000e+00 0.000000e+00 0.000000e+00))
61           	((1.270107e-06 -4.864487e-05 3.339387e-24) (1.835276e-06 6.998157e-08 8.650593e-25) (0.000000e+00 0.000000e+00 0.000000e+00)) ((-1.364024e-25 1.474153e-24 1.718756e-05) (-1.819502e-26 2.163591e-25 7.571047e-09) (0.000000e+00 0.000000e+00 0.000000e+00))
62           	((1.289452e-06 -4.836003e-05 3.336114e-24) (1.826203e-06 6.898141e-08 8.709260e-25) (0.000000e+00 0.000000e+00 0.000000e+00)) ((-1.362017e-25 1.472069e-24 1.706808e-05) (-1.831859e-26 2.178536e-25 7.779456e-09) (0.000000e+00 0.000000e+00 0.000000e+00))
63           	((1.308583e-06 -4.807708e-05 3.333683e-24) (1.817161e-06 6.799664e-08 8.733748e-25) (0.000000e+00 0.000000e+00 0.000000e+00)) ((-1.360179e-25 1.470189e-24 1.694951e-05) (-1.836005e-26 2.183892e-25 7.978953e-09) (0.000000e+00 0.000000e+00 0.000000e+00))
64           	((1.326805e-06 -4.780141e-05 3.330043e-24) (1.808156e-06 6.703293e-08 8.810036e-25) (0.000000e+00 0.000000e+00 0.000000e+00)) ((-1.358084e-25 1.468001e-24 1.683408e-05) (-1.852580e-26 2.203765e-25 8.167958e-09) (0.000000e+00 0.000000e+00 0.000000e+00))
65           	((1.344336e-06 -4.753171e-05 3.326960e-24) (1.799243e-06 6.608998e-08 8.836603e-25) (0.000000e+00 0.000000e+00 0.000000e+00)) ((-1.356131e-25 1.465979e-24 1.672126e-05) (-1.857149e-26 2.209613e-25 8.348198e-09) (0.000000e+00 0.000000e+00 0.000000e+00))
66           	((1.361638e-06 -4.726433e-05 3.323310e-24) (1.790416e-06 6.516831e-08 8.910629e-25) (0.000000e+00 0.000000e+00 0.000000e+00)) ((-1.354037e-25 1.463791e-24 1.660955e-05) (-1.873251e-26 2.228919e-25 8.519397e-09) (0.000000e+00 0.000000e+00 0.000000e+00))
67           	((1.378048e-06 -4.700369e-05 3.319891e-24) (1.781682e-06 6.427231e-08 8.950596e-25) (0.000000e+00 0.000000e+00 0.000000e+00)) ((-1.352019e-25 1.461689e-24 1.650074e-05) (-1.881149e-26 2.238625e-25 8.680597e-09) (0.000000e+00 0.000000e+00 0.000000e+00))
68           	((1.393575e-06 -4.674973e-05 3.315535e-24) (1.773040e-06 6.339326e-08 9.018777e-25) (0.000000e+00 0.000000e+00 0.000000e+00)) ((-1.349813e-25 1.459358e-24 1.639483e-05) (-1.895812e-26 2.256237e-25 8.834910e-09) (0.000000e+00 0.000000e+00 0.000000e+00))
69           	((1.420378e-06 -4.635076e-05 3.328446e-24) (1.764231e-06 6.254544e-08 9.002122e-25) (0.000000e+00 0.000000e+00 0.000000e+00)) ((-1.349444e-25 1.459672e-24 1.623321e-05) (-1.890303e-26 2.250583e-25 8.973467e-09) (0.000000e+00 0.000000e+00 0.000000e+00))
70           	((1.418882e-06 -4.631987e-05 3.315356e-24) (1.756221e-06 6.169391e-08 9.198591e-25) (0.000000e+00 0.000000e+00 0.000000e+00)) ((-1.347695e-25 1.457327e-24 1.621379e-05) (-1.933459e-26 2.301165e-25 9.124012e-09) (0.000000e+00 0.000000e+00 0.000000e+00))
71           	((1.438510e-06 -4.601339e-05 3.305494e-24) (1.747745e-06 6.089040e-08 9.137362e-25) (0.000000e+00 0.000000e+00 0.000000e+00)) ((-1.343773e-25 1.453075e-24 1.608859e-05) (-1.920471e-26 2.286292e-25 9.247519e-09) (0.000000e+00 0.000000e+00 0.000000e+00))
72           	((1.462476e-06 -4.563123e-05 3.314629e-24) (1.739111e-06 6.011481e-08 9.177094e-25) (0.000000e+00 0.000000e+00 0.000000e+00)) ((-1.342827e-25 1.452644e-24 1.593400e-05) (-1.927367e-26 2.295261e-25 9.356782e-09) (0.000000e+00 0.000000e+00 0.000000e+00))
73           	((1.459184e-06 -4.561506e-05 3.303561e-24) (1.731341e-06 5.932164e-08 9.365507e-25) (0.000000e+00 0.000000e+00 0.000000e+00)) ((-1.341556e-25 1.450860e-24 1.592069e-05) (-1.968297e-26 2.343283e-25 9.482762e-09) (0.000000e+00 0.000000e+00 0.000000e+00))
74           	((1.487654e-06 -4.520263e-05 3.308143e-24) (1.722840e-06 5.858269e-08 9.269853e-25) (0.000000e+00 0.000000e+00 0.000000e+00)) ((-1.339330e-25 1.448972e-24 1.575470e-05) (-1.947032e-26 2.319017e-25 9.575735e-09) (0.000000e+00 0.000000e+00 0.000000e+00))
75           	((1.485022e-06 -4.517466e-05 3.295976e-24) (1.715216e-06 5.785074e-08 9.466050e-25) (0.000000e+00 0.000000e+00 0.000000e+00)) ((-1.337669e-25 1.446759e-24 1.573717e-05) (-1.989083e-26 2.368485e-25 9.680521e-09) (0.000000e+00 0.000000e+00 0.000000e+00))
76           	((1.512396e-06 -4.477196e-05 3.299167e-24) (1.706999e-06 5.715265e-08 9.380549e-25) (0.000000e+00 0.000000e+00 0.000000e+00)) ((-1.335248e-25 1.444612e-24 1.557514e-05) (-1.970050e-26 2.346825e-25 9.760442e-09) (0.000000e+00 0.000000e+00 0.000000e+00))
77           	((1.509559e-06 -4.474999e-05 3.289424e-24) (1.699585e-06 5.646982e-08 9.574626e-25) (0.000000e+00 0.000000e+00 0.000000e+00)) ((-1.334121e-25 1.443034e-24 1.556002e-05) (-2.011747e-26 2.395836e-25 9.848157e-09) (0.000000e+00 0.000000e+00 0.000000e+00))
78           	((1.536013e-06 -4.436656e-05 3.294092e-24) (1.691513e-06 5.581398e-08 9.490738e-25) (0.000000e+00 0.000000e+00 0.000000e+00)) ((-1.332185e-25 1.441427e-24 1.540544e-05) (-1.992998e-26 2.374491e-25 9.911475e-09) (0.000000e+00 0.000000e+00 0.000000e+00))
79           	((1.532853e-06 -4.434964e-05 3.284357e-24) (1.684252e-06 5.516893e-08 9.675535e-25) (0.000000e+00 0.000000e+00 0.000000e+00)) ((-1.331049e-25 1.439841e-24 1.539254e-05) (-2.032615e-26 2.421048e-25 9.984469e-09) (0.000000e+00 0.000000e+00 0.000000e+00))
80           	((1.558124e-06 -4.398325e-05 3.288037e-24) (1.676487e-06 5.455955e-08 9.580325e-25) (0.000000e+00 0.000000e+00 0.000000e+00)) ((-1.329062e-25 1.438134e-24 1.524477e-05) (-2.010970e-26 2.396319e-25 1.003423e-08) (0.000000e+00 0.000000e+00 0.000000e+00))
81           	((1.554707e-06 -4.396934e-05 3.279906e-24) (1.669539e-06 5.396863e-08 9.748549e-25) (0.000000e+00 0.000000e+00 0.000000e+00)) ((-1.328245e-25 1.436934e-24 1.523332e-05) (-2.046902e-26 2.438516e-25 1.009204e-08) (0.000000e+00 0.000000e+00 0.000000e+00))
82           	((1.578569e-06 -4.362292e-05 3.287569e-24) (1.661920e-06 5.340063e-08 9.667337e-25) (0.000000e+00 0.000000e+00 0.000000e+00)) ((-1.327265e-25 1.436394e-24 1.509347e-05) (-2.028634e-26 2.417683e-25 1.012655e-08) (0.000000e+00 0.000000e+00 0.000000e+00))
83           	((1.590982e-06 -4.344052e-05 3.285128e-24) (1.654756e-06 5.284916e-08 9.781689e-25) (0.000000e+00 0.000000e+00 0.000000e+00)) ((-1.326122e-25 1.435177e-24 1.501587e-05) (-2.052822e-26 2.446361e-25 1.016241e-08) (0.000000e+00 0.000000e+00 0.000000e+00))
84           	((1.599237e-06 -4.329152e-05 3.284957e-24) (1.647895e-06 5.230856e-08 9.824355e-25) (0.000000e+00 0.000000e+00 0.000000e+00)) ((-1.325437e-25 1.434515e-24 1.495275e-05) (-2.061400e-26 2.456647e-25 1.019908e-08) (0.000000e+00 0.000000e+00 0.000000e+00))
85           	((1.605496e-06 -4.314636e-05 3.287002e-24) (1.641188e-06 5.180994e-08 9.861999e-25) (0.000000e+00 0.000000e+00 0.000000e+00)) ((-1.325139e-25 1.434335e-24 1.489189e-05) (-2.068869e-26 2.465704e-25 1.022547e-08) (0.000000e+00 0.000000e+00 0.000000e+00))
86           	((1.612504e-06 -4.299513e-05 3.290402e-24) (1.634548e-06 5.133163e-08 9.903124e-25) (0.000000e+00 0.000000e+00 0.000000e+00)) ((-1.325124e-25 1.434496e-24 1.482848e-05) (-2.077218e-26 2.475811e-25 1.024496e-08) (0.000000e+00 0.000000e+00 0.000000e+00))
87           	((1.620802e-06 -4.283831e-05 3.293610e-24) (1.627990e-06 5.086856e-08 9.942428e-25) (0.000000e+00 0.000000e+00 0.000000e+00)) ((-1.325089e-25 1.434628e-24 1.476264e-05) (-2.084969e-26 2.485250e-25 1.025939e-08) (0.000000e+00 0.000000e+00 0.000000e+00))
88           	((1.629866e-06 -4.267997e-05 3.295984e-24) (1.621575e-06 5.042602e-08 1.000251e-24) (0.000000e+00 0.000000e+00 0.000000e+00)) ((-1.324909e-25 1.434579e-24 1.469609e-05) (-2.097373e-26 2.500184e-25 1.026857e-08) (0.000000e+00 0.000000e+00 0.000000e+00))
89           	((1.638894e-06 -4.252656e-05 3.300109e-24) (1.615260e-06 5.000260e-08 1.006848e-24) (0.000000e+00 0.000000e+00 0.000000e+00)) ((-1.325149e-25 1.435020e-24 1.463146e-05) (-2.110866e-26 2.516439e-25 1.027255e-08) (0.000000e+00 0.000000e+00 0.000000e+00))
90           	((1.647585e-06 -4.237781e-05 3.304549e-24) (1.609055e-06 4.959376e-08 1.014970e-24) (0.000000e+00 0.000000e+00 0.000000e+00)) ((-1.325492e-25 1.435577e-24 1.456877e-05) (-2.127895e-26 2.536849e-25 1.027234e-08) (0.000000e+00 0.000000e+00 0.000000e+00))
91           	((1.655936e-06 -4.223286e-05 3.308870e-24) (1.602981e-06 4.920380e-08 1.023473e-24) (0.000000e+00 0.000000e+00 0.000000e+00)) ((-1.325835e-25 1.436127e-24 1.450772e-05) (-2.145474e-26 2.557986e-25 1.026789e-08) (0.000000e+00 0.000000e+00 0.000000e+00))
92           	((1.664004e-06 -4.209144e-05 3.313521e-24) (1.597061e-06 4.883677e-08 1.032876e-24) (0.000000e+00 0.000000e+00 0.000000e+00)) ((-1.326277e-25 1.436789e-24 1.444817e-05) (-2.165225e-26 2.581721e-25 1.025807e-08) (0.000000e+00 0.000000e+00 0.000000e+00))
93           	((1.671803e-06 -4.195438e-05 3.319438e-24) (1.591218e-06 4.848426e-08 1.039830e-24) (0.000000e+00 0.000000e+00 0.000000e+00)) ((-1.327014e-25 1.437797e-24 1.439044e-05) (-2.179646e-26 2.599101e-25 1.024428e-08) (0.000000e+00 0.000000e+00 0.000000e+00))
94           	((1.679531e-06 -4.181824e-05 3.323516e-24) (1.585526e-06 4.814682e-08 1.045036e-24) (0.000000e+00 0.000000e+00 0.000000e+00)) ((-1.327373e-25 1.438350e-24 1.433323e-05) (-2.190516e-26 2.612193e-25 1.022763e-08) (0.000000e+00 0.000000e+00 0.000000e+00))
95           	((1.687234e-06 -4.168386e-05 3.326492e-24) (1.579998e-06 4.782970e-08 1.048360e-24) (0.000000e+00 0.000000e+00 0.000000e+00)) ((-1.327524e-25 1.438648e-24 1.427680e-05) (-2.197563e-26 2.620662e-25 1.020762e-08) (0.000000e+00 0.000000e+00 0.000000e+00))
96           	((1.694755e-06 -4.155348e-05 3.330063e-24) (1.574561e-06 4.753021e-08 1.050223e-24) (0.000000e+00 0.000000e+00 0.000000e+00)) ((-1.327841e-25 1.439134e-24 1.422202e-05) (-2.201477e-26 2.625501e-25 1.018307e-08) (0.000000e+00 0.000000e+00 0.000000e+00))
97           	((1.702110e-06 -4.142543e-05 3.333234e-24) (1.569228e-06 4.724126e-08 1.051695e-24) (0.000000e+00 0.000000e+00 0.000000e+00)) ((-1.328093e-25 1.439538e-24 1.416830e-05) (-2.204670e-26 2.629456e-25 1.015660e-08) (0.000000e+00 0.000000e+00 0.000000e+00))
98           	((1.709330e-06 -4.129939e-05 3.335971e-24) (1.564012e-06 4.696630e-08 1.051772e-24) (0.000000e+00 0.000000e+00 0.000000e+00)) ((-1.328266e-25 1.439844e-24 1.411551e-05) (-2.204985e-26 2.629936e-25 1.012767e-08) (0.000000e+00 0.000000e+00 0.000000e+00))
99           	((1.716431e-06 -4.117529e-05 3.337983e-24) (1.558929e-06 4.670485e-08 1.051834e-24) (0.000000e+00 0.000000e+00 0.000000e+00)) ((-1.328306e-25 1.439987e-24 1.406363e-05) (-2.205382e-26 2.630479e-25 1.009670e-08) (0.000000e+00 0.000000e+00 0.000000e+00))
100          	((1.723322e-06 -4.105443e-05 3.340496e-24) (1.553957e-06 4.645633e-08 1.052139e-24) (0.000000e+00 0.000000e+00 0.000000e+00)) ((-1.328479e-25 1.440281e-24 1.401315e-05) (-2.206157e-26 2.631540e-25 1.006388e-08) (0.000000e+00 0.000000e+00 0.000000e+00))
101          	((1.730606e-06 -4.093296e-05 3.342118e-24) (1.549084e-06 4.621865e-08 1.052779e-24) (0.000000e+00 0.000000e+00 0.000000e+00)) ((-1.328484e-25 1.440369e-24 1.396245e-05) (-2.207798e-26 2.633674e-25 1.002889e-08) (0.000000e+00 0.000000e+00 0.000000e+00))
102          	((1.737171e-06 -4.081622e-05 3.344179e-24) (1.544329e-06 4.599164e-08 1.053212e-24) (0.000000e+00 0.000000e+00 0.000000e+00)) ((-1.328593e-25 1.440579e-24 1.391391e-05) (-2.208882e-26 2.635139e-25 9.993104e-09) (0.000000e+00 0.000000e+00 0.000000e+00))
103          	((1.743316e-06 -4.070235e-05 3.346369e-24) (1.539696e-06 4.577477e-08 1.054259e-24) (0.000000e+00 0.000000e+00 0.000000e+00)) ((-1.328741e-25 1.440834e-24 1.386674e-05) (-2.211274e-26 2.638163e-25 9.956481e-09) (0.000000e+00 0.000000e+00 0.000000e+00))
104          	((1.749255e-06 -4.059060e-05 3.348513e-24) (1.535188e-06 4.556817e-08 1.055959e-24) (0.000000e+00 0.000000e+00 0.000000e+00)) ((-1.328894e-25 1.441091e-24 1.382057e-05) (-2.214908e-26 2.642696e-25 9.919254e-09) (0.000000e+00 0.000000e+00 0.000000e+00))
105          	((1.755136e-06 -4.047999e-05 3.350420e-24) (1.530816e-06 4.537137e-08 1.059088e-24) (0.000000e+00 0.000000e+00 0.000000e+00)) ((-1.329009e-25 1.441299e-24 1.377499e-05) (-2.221557e-26 2.650834e-25 9.881724e-09) (0.000000e+00 0.000000e+00 0.000000e+00))
106          	((1.760954e-06 -4.037106e-05 3.352144e-24) (1.526589e-06 4.518704e-08 1.063539e-24) (0.000000e+00 0.000000e+00 0.000000e+00)) ((-1.329095e-25 1.441469e-24 1.373021e-05) (-2.230790e-26 2.662102e-25 9.843413e-09) (0.000000e+00 0.000000e+00 0.000000e+00))
107          	((1.766635e-06 -4.026443e-05 3.354008e-24) (1.522479e-06 4.501229e-08 1.068460e-24) (0.000000e+00 0.000000e+00 0.000000e+00)) ((-1.329226e-25 1.441690e-24 1.368647e-05) (-2.240942e-26 2.674474e-25 9.804805e-09) (0.000000e+00 0.000000e+00 0.000000e+00))
108          	((1.772126e-06 -4.015997e-05 3.355726e-24) (1.518462e-06 4.484343e-08 1.072849e-24) (0.000000e+00 0.000000e+00 0.000000e+00)) ((-1.329334e-25 1.441882e-24 1.364374e-05) (-2.249922e-26 2.685438e-25 9.766232e-09) (0.000000e+00 0.000000e+00 0.000000e+00))
109          	((1.777417e-06 -4.005747e-05 3.357198e-24) (1.514540e-06 4.467866e-08 1.077244e-24) (0.000000e+00 0.000000e+00 0.000000e+00)) ((-1.329391e-25 1.442013e-24 1.360195e-05) (-2.258955e-26 2.696443e-25 9.728512e-09) (0.000000e+00 0.000000e+00 0.000000e+00))
110          	((1.782514e-06 -3.995654e-05 3.358364e-24) (1.510720e-06 4.451790e-08 1.080132e-24) (0.000000e+00 0.000000e+00 0.000000e+00)) ((-1.329376e-25 1.442058e-24 1.356098e-05) (-2.264867e-26 2.703681e-25 9.691688e-09) (0.000000e+00 0.000000e+00 0.000000e+00))
111          	((1.787378e-06 -3.985803e-05 3.359289e-24) (1.507006e-06 4.436108e-08 1.082363e-24) (0.000000e+00 0.000000e+00 0.000000e+00)) ((-1.329310e-25 1.442043e-24 1.352114e-05) (-2.269475e-26 2.709321e-25 9.656143e-09) (0.000000e+00 0.000000e+00 0.000000e+00))